Job CO2.01 started on ion.wag.caltech.edu at Thu Jul  8 09:50:33 2021
jobid: ion-0-60e72cd8

  +--------------------------------------------------------------------+
  |  Jaguar version 8.8, release  11                                   |
  |                                                                    |
  |  Copyright Schrodinger, Inc.                                       |
  |  All Rights Reserved.                                              |
  |                                                                    |
  |  The following have contributed to Jaguar (listed alphabetically): |
  |  Mike Beachy, Art Bochevarov, Dale Braden, Yixiang Cao,            |
  |  Chris Cortis, Rich Friesner, Bill Goddard, Hod Greeley,           |
  |  Tom Hughes, Jean-Marc Langlois, Daniel Mainz, Rob Murphy,         |
  |  Dean Philipp, Tom Pollard, Murco Ringnalda.                       |
  |                                                                    |
  |  Use of this program should be acknowledged in publications as:    |
  |                                                                    |
  |  Jaguar, version 8.8, Schrodinger, Inc., New York, NY, 2015.       |
  |                                                                    |
  |  A. D. Bochevarov, E. Harder, T. F. Hughes, J. R. Greenwood,       |
  |  D. A. Braden, D. M. Philipp, D. Rinaldo, M. D. Halls,             |
  |  J. Zhang, R. A. Friesner, "Jaguar: A High-Performance Quantum     |
  |  Chemistry Software Program with Strengths in Life and Materials   |
  |  Sciences", Int. J. Quantum Chem., 2013, 113(18), 2110-2142.       |
  +--------------------------------------------------------------------+
  
  start of program pre
  
  Job name: CO2.01
  Executables used: /project/exec/schrodinger_2015/jaguar-v88011/bin/Linux-x86_64
  Temporary files : /net/hulk/home3/jqian/.schrodinger/tmp/CO2.01
  Maestro file (input):  CO2.01.mae
  Maestro file (output): CO2.02.mae
  
  
  basis set:             lacvp**                         
  net molecular charge:    0
  multiplicity:            1
  
  number of basis functions....           42
  
 Input geometry:
                                   angstroms
  atom               x                 y                 z
  C1            0.0000000074      0.0000000000      0.0000000000 
  O2           -0.0000000028      0.0000000000      1.1603260000 
  O3           -0.0000000028      0.0000000000     -1.1603260000 
   
  principal moments of inertia:
        amu*angstrom^2:        0.00000       43.06971       43.06971
                g*cm^2: 1.50761441E-55 7.15189308E-39 7.15189308E-39
   
  rotational constants:
               cm^(-1):        infinite      0.39140334      0.39140334
                   GHz:        infinite     11.73397689     11.73397689
   
  Molecular weight:      43.99 amu
   
  Stoichiometry: CO2
  Molecule is linear 
  Molecular Point Group: D_inf_h 
	Molecule translated to center of mass 
	Molecule reoriented along symmetry axes
  Point Group used: D_inf_h
  
 
Number of optimization coordinates:     4
Number of independent coordinates:      4
Number of non-redundant coordinates:    4
Number of frozen coordinates:           0
Number of harmonic constraints:         0
 
Number of geometric degrees of freedom:     4
Maximum geometric degrees of freedom:       2
 " " " " " excluding dummy atoms:           2
 
  
 Symmetrized geometry:
                                   angstroms
  atom               x                 y                 z
  C1            0.0000000000      0.0000000000      0.0000000000 
  O2            0.0000000000      0.0000000000      1.1603260000 
  O3            0.0000000000      0.0000000000     -1.1603260000 
   
  nuclear repulsion energy.......      58.375562542 hartrees
 
 Non-default options chosen:
   SCF calculation type: DFT(pbe)                    
   DFT=PBE(X+LC)+PW91 (PBE)
   Geometry will be optimized in redundant internal coordinates
   Vibrational frequencies and related properties will be computed
      from analytic second derivatives
   IR intensities will be computed
   Thermochemical data will be computed for  25 temperatures starting at
       298.15 K, at intervals of   25.00 K
   Highest accuracy cutoffs used in SCF
   Maximum number of geometry steps:   10
   Mulliken populations computed by atom
  
 Temporary integer options set:
     73=  1
  
  Peak memory usage:    519 Mb
  
  end of program pre
   
 Time(pre)  user:        0.2  user+sys:        0.2  wallclock:        0.5
  
  start of program onee
  
  smallest eigenvalue of S:    8.517E-03
  number of canonical orbitals.....           42
  Peak memory usage:    671 Mb
  
  end of program onee
   
 Time(onee)  user:        0.2  user+sys:        0.2  wallclock:        0.2
  
  start of program hfig
  
  initial wavefunction generated automatically from atomic wavefunctions
 
  Irreducible     Total no   No of occupied orbitals 
  representation  orbitals   Shell_1  Shell_2    ...
  Sig_g+            10          4
  Sig_g-             0          0
  Del_g_1            2          0
  Del_g_2            2          0
  Pi_g_2             4          1
  Pi_g_1             4          1
  Sig_u+             0          0
  Sig_u-             8          3
  Del_u_1            1          0
  Del_u_2            1          0
  Pi_u_2             5          1
  Pi_u_1             5          1
  ------------------------
  Orbital occupation/shell    1.000
 
  Peak memory usage:    608 Mb
  
  end of program hfig
   
 Time(hfig)  user:        0.2  user+sys:        0.2  wallclock:        0.2
  
  start of program probe
  
  Peak memory usage:    608 Mb
  
  end of program probe
   
 Time(probe)  user:        0.2  user+sys:        0.2  wallclock:        0.1
  
  start of program grid
  
  
   grid     grid set  grid #  grid sym
  ------    --------  ------  --------
  coarse        0        0        1
  medium        2        1       16
  fine          0        0        1
  ultrafine     4        2       16
  charge        0        0        1
  gradient      4        2       16
  density       0        0        1
  DFT-fine    -11        3       16
  DFT-med.    -10        4       16
  DFT-grad    -12        5       16
  DFT-der2     -8        6       16
  DFT-cphf     -9        7       16
  LMP2-enrg     4        2       16
  LMP2-grad     2        1       16
  DFT-cphf2   -15        8       16
  PBF-dens      0        0        1
  plotting      0        0        1
  Rel-grad    -17        0        1
  
   
  number of gridpoints: 
     atom        C1       O2       O3    total
  grid # 1       14       30        0       44
  grid # 2       51      111        0      162
  grid # 3      530      939        0     1469
  grid # 4      201      337        0      538
  grid # 5      624     1079        0     1703
  grid # 6     1222     3936        0     5158
  grid # 7      102      176        0      278
  grid # 8       61      104        0      165
   
  Peak memory usage:    641 Mb
  
  end of program grid
   
 Time(grid)  user:        0.2  user+sys:        0.2  wallclock:        0.4
  
  start of program rwr
  
  Peak memory usage:    519 Mb
  
  end of program rwr
   
 Time(rwr)  user:        0.2  user+sys:        0.2  wallclock:        0.3
  
  start of program scf
  
 number of electrons..........         22
 number of alpha electrons....         11
 number of beta electrons.....         11
 number of orbitals, total....         42
 number of doubly-occ'd orbs..         11
 number of open shell orbs....          0
 number of occupied orbitals..         11
 number of virtual orbitals...         31
 number of hamiltonians.......          1
 number of shells.............          1
 SCF type: DFT=PBE(X+LC)+PW91 (PBE)
  
       i  u  d  i  g                   
       t  p  i  c  r                                 RMS    maximum
       e  d  i  u  i                       energy  density   DIIS  
       r  t  s  t  d       total energy    change  change    error 
  
etot    1  N  N  1  U    -187.92790922349           9.9E-03  2.8E-01
etot    2  N  Y  1  U    -188.32137081127  3.9E-01  8.6E-03  1.3E-01
etot    3  N  Y  1  U    -188.26837576195 -5.3E-02  4.8E-03  1.2E-01
etot    4  N  Y  1  U    -188.38625410580  1.2E-01  1.1E-03  1.4E-02
etot    5  N  Y  1  U    -188.38850384533  2.2E-03  9.6E-05  1.1E-03
etot    6  N  Y  1  U    -188.38851467966  1.1E-05  7.5E-06  1.2E-04
etot    7  N  Y  1  U    -188.38851480884  1.3E-07  2.4E-07  1.4E-05
etot    8  N  N  1  U    -188.38851480957  7.4E-10  0.0E+00  0.0E+00
  
  
 Energy components, in hartrees:
   (A)  Nuclear repulsion............      58.37556254225
   (E)  Total one-electron terms.....    -372.86502987719
   (I)  Total two-electron terms.....     126.10095252537
   (J)    Coulomb....................     148.47242519766
   (K)    Exchange+Correlation.......     -22.37147267230
   (L)  Electronic energy............    -246.76407735182  (E+I)
   (N)  Total energy.................    -188.38851480957  (A+L)
  
 SCFE: SCF energy: DFT(pbe)      -188.38851480957 hartrees   iterations:   8
  
 
 HOMO energy:    -0.31831
 LUMO energy:     0.00498
 
  Orbital energies (hartrees)/symmetry label: 
   -18.84585 Sig_u-    -18.84581 Sig_g+    -10.06706 Sig_g+     -1.06462 Sig_g+ 
    -1.02650 Sig_u-     -0.49179 Sig_g+     -0.45546 Pi_u_2     -0.45546 Pi_u_1 
    -0.45020 Sig_u-     -0.31831 Pi_g_2     -0.31831 Pi_g_1      0.00498 Pi_u_2 
     0.00498 Pi_u_1      0.05984 Sig_g+      0.35097 Sig_u-      0.44597 Pi_u_2 
     0.44597 Pi_u_1      0.55309 Sig_g+      0.70405 Sig_u-      0.78376 Sig_g+ 
     0.82834 Pi_g_2 
 
  Peak memory usage:    816 Mb
  
  end of program scf
   
 Time(scf)  user:        1.3  user+sys:        1.3  wallclock:        2.7
  
  start of program der1a
  
  Peak memory usage:    673 Mb
  
  end of program der1a
   
 Time(der1a)  user:        0.2  user+sys:        0.2  wallclock:        0.4
  
  start of program rwr
  
  Peak memory usage:    522 Mb
  
  end of program rwr
   
 Time(rwr)  user:        0.2  user+sys:        0.2  wallclock:        0.2
  
  start of program der1b
  
   
  forces (hartrees/bohr) : total     
   
 atom  label           x              y              z
 ---- --------   -------------  -------------  -------------
    1 C1         -3.469447E-18  -3.469447E-18  -8.881784E-16
    2 O2          0.000000E+00   6.938894E-18   4.398183E-02
    3 O3          6.938894E-18   0.000000E+00  -4.398183E-02
 -------------   -------------  -------------  -------------
     total        3.469447E-18   3.469447E-18  -8.881784E-16
   
  Peak memory usage:    750 Mb
  
  end of program der1b
   
 Time(der1b)  user:        0.5  user+sys:        0.5  wallclock:        0.5
  
  start of program geopt
  
  geometry optimization step  1
  energy:            -188.38851480957 hartrees
  
  gradient maximum:        4.3982E-02 .  (  4.5000E-04 )
  gradient rms:            3.1100E-02 .  (  3.0000E-04 )
  displacement maximum:    4.6707E-02 .  (  1.8000E-03 )
  displacement rms:        3.3027E-02 .  (  1.2000E-03 )
  
  predicted energy change:  -2.0632E-03
  step size:     0.06605
  trust radius:  0.30000
  
  molecular structure not yet converged...
  
  center of mass moved by:
     x:     0.0000E+00     y:     0.0000E+00     z:     0.0000E+00
  
  new geometry: 
                                   angstroms
  atom               x                 y                 z
  C1            0.0000000000      0.0000000000      0.0000000000 
  O2            0.0000000000      0.0000000000      1.1850421201 
  O3            0.0000000000      0.0000000000     -1.1850421201 
   
  nuclear repulsion energy.......      57.158038379 hartrees
  -------------------------------------------------
 /  end of geometry optimization iteration   1   /
 -------------------------------------------------
   
  Peak memory usage:    516 Mb
  
  end of program geopt
   
 Time(geopt)  user:        0.2  user+sys:        0.2  wallclock:        0.1
  
  start of program onee
  
  smallest eigenvalue of S:    8.704E-03
  number of canonical orbitals.....           42
  Peak memory usage:    671 Mb
  
  end of program onee
   
 Time(onee)  user:        0.2  user+sys:        0.2  wallclock:        0.2
  
  start of program probe
  
  Peak memory usage:    608 Mb
  
  end of program probe
   
 Time(probe)  user:        0.2  user+sys:        0.2  wallclock:        0.1
  
  start of program grid
  
  
   grid     grid set  grid #  grid sym
  ------    --------  ------  --------
  coarse        0        0        1
  medium        2        1       16
  fine          0        0        1
  ultrafine     4        2       16
  charge        0        0        1
  gradient      4        2       16
  density       0        0        1
  DFT-fine    -11        3       16
  DFT-med.    -10        4       16
  DFT-grad    -12        5       16
  DFT-der2     -8        6       16
  DFT-cphf     -9        7       16
  LMP2-enrg     4        2       16
  LMP2-grad     2        1       16
  DFT-cphf2   -15        8       16
  PBF-dens      0        0        1
  plotting      0        0        1
  Rel-grad    -17        0        1
  
   
  number of gridpoints: 
     atom        C1       O2       O3    total
  grid # 1       14       30        0       44
  grid # 2       51      111        0      162
  grid # 3      530      939        0     1469
  grid # 4      201      337        0      538
  grid # 5      624     1079        0     1703
  grid # 6     1222     3936        0     5158
  grid # 7      102      176        0      278
  grid # 8       61      104        0      165
   
  Peak memory usage:    641 Mb
  
  end of program grid
   
 Time(grid)  user:        0.2  user+sys:        0.2  wallclock:        0.9
  
  start of program rwr
  
  Peak memory usage:    519 Mb
  
  end of program rwr
   
 Time(rwr)  user:        0.2  user+sys:        0.2  wallclock:        0.3
  
  start of program scf
  
  
       i  u  d  i  g                   
       t  p  i  c  r                                 RMS    maximum
       e  d  i  u  i                       energy  density   DIIS  
       r  t  s  t  d       total energy    change  change    error 
  
etot    1  N  N  1  U    -188.38929942493           1.1E-03  7.0E-03
etot    2  N  Y  1  U    -188.38995816400  6.6E-04  3.4E-04  4.5E-03
etot    3  N  Y  1  U    -188.39003800812  8.0E-05  1.8E-04  3.5E-03
etot    4  N  Y  1  U    -188.39010474972  6.7E-05  6.9E-05  1.8E-03
etot    5  N  Y  1  U    -188.39012534467  2.1E-05  2.4E-06  6.0E-05
etot    6  N  N  1  U    -188.39012536959  2.5E-08  0.0E+00  0.0E+00
  
  
 Energy components, in hartrees:
   (A)  Nuclear repulsion............      57.15803837929
   (E)  Total one-electron terms.....    -370.49376267390
   (I)  Total two-electron terms.....     124.94559892502
   (J)    Coulomb....................     147.26887193965
   (K)    Exchange+Correlation.......     -22.32327301463
   (L)  Electronic energy............    -245.54816374888  (E+I)
   (N)  Total energy.................    -188.39012536959  (A+L)
  
 SCFE: SCF energy: DFT(pbe)      -188.39012536959 hartrees   iterations:   6
  
 
 HOMO energy:    -0.31781
 LUMO energy:    -0.01122
 
  Orbital energies (hartrees)/symmetry label: 
   -18.85107 Sig_u-    -18.85102 Sig_g+    -10.07526 Sig_g+     -1.05393 Sig_g+ 
    -1.01577 Sig_u-     -0.49694 Sig_g+     -0.45058 Sig_u-     -0.44755 Pi_u_2 
    -0.44755 Pi_u_1     -0.31781 Pi_g_2     -0.31781 Pi_g_1     -0.01122 Pi_u_2 
    -0.01122 Pi_u_1      0.04580 Sig_g+      0.35172 Sig_u-      0.44950 Pi_u_2 
     0.44950 Pi_u_1      0.53845 Sig_g+      0.67915 Sig_u-      0.78510 Sig_g+ 
     0.82672 Pi_g_2 
 
  Peak memory usage:    816 Mb
  
  end of program scf
   
 Time(scf)  user:        0.9  user+sys:        0.9  wallclock:        2.4
  
  start of program der1a
  
  Peak memory usage:    673 Mb
  
  end of program der1a
   
 Time(der1a)  user:        0.2  user+sys:        0.2  wallclock:        0.3
  
  start of program rwr
  
  Peak memory usage:    522 Mb
  
  end of program rwr
   
 Time(rwr)  user:        0.2  user+sys:        0.2  wallclock:        0.2
  
  start of program der1b
  
   
  forces (hartrees/bohr) : total     
   
 atom  label           x              y              z
 ---- --------   -------------  -------------  -------------
    1 C1          0.000000E+00   0.000000E+00   4.440892E-16
    2 O2          0.000000E+00  -6.938894E-18  -8.308655E-03
    3 O3         -6.938894E-18   0.000000E+00   8.308655E-03
 -------------   -------------  -------------  -------------
     total       -6.938894E-18  -6.938894E-18   4.440892E-16
   
  Peak memory usage:    750 Mb
  
  end of program der1b
   
 Time(der1b)  user:        0.4  user+sys:        0.4  wallclock:        0.6
  
  start of program geopt
  
  geometry optimization step  2
  energy:            -188.39012536959 hartrees
  
  energy change:          -1.6106E-03 .  (  5.0000E-05 )
  gradient maximum:        8.3087E-03 .  (  4.5000E-04 )
  gradient rms:            5.8751E-03 .  (  3.0000E-04 )
  displacement maximum:    7.4205E-03 .  (  1.8000E-03 )
  displacement rms:        5.2471E-03 .  (  1.2000E-03 )
  
  predicted energy change:  -6.1662E-05
  step size:     0.01049
  trust radius:  0.30000
  
  molecular structure not yet converged...
  
  center of mass moved by:
     x:     0.0000E+00     y:     0.0000E+00     z:     0.0000E+00
  
  new geometry: 
                                   angstroms
  atom               x                 y                 z
  C1            0.0000000000      0.0000000000      0.0000000000 
  O2            0.0000000000      0.0000000000      1.1811153829 
  O3            0.0000000000      0.0000000000     -1.1811153829 
   
  nuclear repulsion energy.......      57.348066042 hartrees
  -------------------------------------------------
 /  end of geometry optimization iteration   2   /
 -------------------------------------------------
   
  Peak memory usage:    516 Mb
  
  end of program geopt
   
 Time(geopt)  user:        0.2  user+sys:        0.2  wallclock:        0.1
  
  start of program onee
  
  smallest eigenvalue of S:    8.672E-03
  number of canonical orbitals.....           42
  Peak memory usage:    671 Mb
  
  end of program onee
   
 Time(onee)  user:        0.2  user+sys:        0.2  wallclock:        0.3
  
  start of program probe
  
  Peak memory usage:    608 Mb
  
  end of program probe
   
 Time(probe)  user:        0.2  user+sys:        0.2  wallclock:        0.1
  
  start of program grid
  
  
   grid     grid set  grid #  grid sym
  ------    --------  ------  --------
  coarse        0        0        1
  medium        2        1       16
  fine          0        0        1
  ultrafine     4        2       16
  charge        0        0        1
  gradient      4        2       16
  density       0        0        1
  DFT-fine    -11        3       16
  DFT-med.    -10        4       16
  DFT-grad    -12        5       16
  DFT-der2     -8        6       16
  DFT-cphf     -9        7       16
  LMP2-enrg     4        2       16
  LMP2-grad     2        1       16
  DFT-cphf2   -15        8       16
  PBF-dens      0        0        1
  plotting      0        0        1
  Rel-grad    -17        0        1
  
   
  number of gridpoints: 
     atom        C1       O2       O3    total
  grid # 1       14       30        0       44
  grid # 2       51      111        0      162
  grid # 3      530      939        0     1469
  grid # 4      201      337        0      538
  grid # 5      624     1079        0     1703
  grid # 6     1222     3936        0     5158
  grid # 7      102      176        0      278
  grid # 8       61      104        0      165
   
  Peak memory usage:    641 Mb
  
  end of program grid
   
 Time(grid)  user:        0.2  user+sys:        0.2  wallclock:        0.3
  
  start of program rwr
  
  Peak memory usage:    519 Mb
  
  end of program rwr
   
 Time(rwr)  user:        0.2  user+sys:        0.2  wallclock:        0.2
  
  start of program scf
  
  
       i  u  d  i  g                   
       t  p  i  c  r                                 RMS    maximum
       e  d  i  u  i                       energy  density   DIIS  
       r  t  s  t  d       total energy    change  change    error 
  
etot    1  N  N  1  U    -188.39016840789           1.7E-04  1.1E-03
etot    2  N  Y  1  U    -188.39018482554  1.6E-05  5.2E-05  6.8E-04
etot    3  N  Y  1  U    -188.39018684596  2.0E-06  2.6E-05  5.1E-04
etot    4  N  Y  1  U    -188.39018818071  1.3E-06  1.1E-05  2.8E-04
etot    5  N  Y  1  U    -188.39018868933  5.1E-07  3.7E-07  9.4E-06
etot    6  N  N  1  U    -188.39018868936  2.6E-11  0.0E+00  0.0E+00
  
  
 Energy components, in hartrees:
   (A)  Nuclear repulsion............      57.34806604171
   (E)  Total one-electron terms.....    -370.86444857514
   (I)  Total two-electron terms.....     125.12619384407
   (J)    Coulomb....................     147.45693699311
   (K)    Exchange+Correlation.......     -22.33074314904
   (L)  Electronic energy............    -245.73825473107  (E+I)
   (N)  Total energy.................    -188.39018868936  (A+L)
  
 SCFE: SCF energy: DFT(pbe)      -188.39018868936 hartrees   iterations:   6
  
 
 HOMO energy:    -0.31790
 LUMO energy:    -0.00871
 
  Orbital energies (hartrees)/symmetry label: 
   -18.85026 Sig_u-    -18.85021 Sig_g+    -10.07398 Sig_g+     -1.05562 Sig_g+ 
    -1.01745 Sig_u-     -0.49613 Sig_g+     -0.45053 Sig_u-     -0.44878 Pi_u_2 
    -0.44878 Pi_u_1     -0.31790 Pi_g_2     -0.31790 Pi_g_1     -0.00871 Pi_u_2 
    -0.00871 Pi_u_1      0.04810 Sig_g+      0.35159 Sig_u-      0.44896 Pi_u_2 
     0.44896 Pi_u_1      0.54062 Sig_g+      0.68358 Sig_u-      0.78479 Sig_g+ 
     0.82701 Pi_g_2 
 
  Peak memory usage:    816 Mb
  
  end of program scf
   
 Time(scf)  user:        1.1  user+sys:        1.1  wallclock:       21.4
  
  start of program der1a
  
  Peak memory usage:    673 Mb
  
  end of program der1a
   
 Time(der1a)  user:        0.2  user+sys:        0.2  wallclock:        0.2
  
  start of program rwr
  
  Peak memory usage:    522 Mb
  
  end of program rwr
   
 Time(rwr)  user:        0.2  user+sys:        0.2  wallclock:        0.2
  
  start of program der1b
  
   
  forces (hartrees/bohr) : total     
   
 atom  label           x              y              z
 ---- --------   -------------  -------------  -------------
    1 C1          3.469447E-18   3.469447E-18  -4.440892E-16
    2 O2          0.000000E+00   0.000000E+00  -5.896257E-04
    3 O3          0.000000E+00   0.000000E+00   5.896257E-04
 -------------   -------------  -------------  -------------
     total        3.469447E-18   3.469447E-18  -4.440892E-16
   
  Peak memory usage:    750 Mb
  
  end of program der1b
   
 Time(der1b)  user:        0.5  user+sys:        0.5  wallclock:        0.7
  
  start of program geopt
  
  geometry optimization step  3
  energy:            -188.39018868936 hartrees
  
  energy change:          -6.3320E-05 .  (  5.0000E-05 )
  gradient maximum:        5.8963E-04 .  (  4.5000E-04 )
  gradient rms:            4.1693E-04 .  (  3.0000E-04 )
  displacement maximum:    5.6340E-04 *  (  1.8000E-03 )
  displacement rms:        3.9839E-04 *  (  1.2000E-03 )
  
  predicted energy change:  -3.3420E-07
  step size:     0.00080
  trust radius:  0.30000
  
  molecular structure not yet converged...
  
  center of mass moved by:
     x:     0.0000E+00     y:     0.0000E+00     z:     0.0000E+00
  
  new geometry: 
                                   angstroms
  atom               x                 y                 z
  C1            0.0000000000      0.0000000000      0.0000000000 
  O2            0.0000000000      0.0000000000      1.1808172430 
  O3            0.0000000000      0.0000000000     -1.1808172430 
   
  nuclear repulsion energy.......      57.362545630 hartrees
  -------------------------------------------------
 /  end of geometry optimization iteration   3   /
 -------------------------------------------------
   
  Peak memory usage:    516 Mb
  
  end of program geopt
   
 Time(geopt)  user:        0.2  user+sys:        0.2  wallclock:        0.1
  
  start of program onee
  
  smallest eigenvalue of S:    8.670E-03
  number of canonical orbitals.....           42
  Peak memory usage:    671 Mb
  
  end of program onee
   
 Time(onee)  user:        0.2  user+sys:        0.2  wallclock:        0.2
  
  start of program probe
  
  Peak memory usage:    608 Mb
  
  end of program probe
   
 Time(probe)  user:        0.2  user+sys:        0.2  wallclock:        0.1
  
  start of program grid
  
  
   grid     grid set  grid #  grid sym
  ------    --------  ------  --------
  coarse        0        0        1
  medium        2        1       16
  fine          0        0        1
  ultrafine     4        2       16
  charge        0        0        1
  gradient      4        2       16
  density       0        0        1
  DFT-fine    -11        3       16
  DFT-med.    -10        4       16
  DFT-grad    -12        5       16
  DFT-der2     -8        6       16
  DFT-cphf     -9        7       16
  LMP2-enrg     4        2       16
  LMP2-grad     2        1       16
  DFT-cphf2   -15        8       16
  PBF-dens      0        0        1
  plotting      0        0        1
  Rel-grad    -17        0        1
  
   
  number of gridpoints: 
     atom        C1       O2       O3    total
  grid # 1       14       30        0       44
  grid # 2       51      111        0      162
  grid # 3      530      939        0     1469
  grid # 4      201      337        0      538
  grid # 5      624     1079        0     1703
  grid # 6     1222     3936        0     5158
  grid # 7      102      176        0      278
  grid # 8       61      104        0      165
   
  Peak memory usage:    641 Mb
  
  end of program grid
   
 Time(grid)  user:        0.2  user+sys:        0.2  wallclock:        0.3
  
  start of program rwr
  
  Peak memory usage:    519 Mb
  
  end of program rwr
   
 Time(rwr)  user:        0.2  user+sys:        0.2  wallclock:        0.2
  
  start of program scf
  
  
       i  u  d  i  g                   
       t  p  i  c  r                                 RMS    maximum
       e  d  i  u  i                       energy  density   DIIS  
       r  t  s  t  d       total energy    change  change    error 
  
etot    1  N  N  1  U    -188.39018863347           1.3E-05  8.3E-05
etot    2  N  Y  1  U    -188.39018873329  1.0E-07  4.0E-06  5.2E-05
etot    3  N  N  1  U    -188.39018874253  9.2E-09  0.0E+00  0.0E+00
  
  
 Energy components, in hartrees:
   (A)  Nuclear repulsion............      57.36254562969
   (E)  Total one-electron terms.....    -370.89203145996
   (I)  Total two-electron terms.....     125.13929708774
   (J)    Coulomb....................     147.47050119722
   (K)    Exchange+Correlation.......     -22.33120410948
   (L)  Electronic energy............    -245.75273437222  (E+I)
   (N)  Total energy.................    -188.39018874253  (A+L)
  
 SCFE: SCF energy: DFT(pbe)      -188.39018874253 hartrees   iterations:   3
  
 
 HOMO energy:    -0.31794
 LUMO energy:    -0.00853
 
  Orbital energies (hartrees)/symmetry label: 
   -18.85030 Sig_u-    -18.85025 Sig_g+    -10.07383 Sig_g+     -1.05577 Sig_g+ 
    -1.01760 Sig_u-     -0.49610 Sig_g+     -0.45056 Sig_u-     -0.44889 Pi_u_2 
    -0.44889 Pi_u_1     -0.31794 Pi_g_2     -0.31794 Pi_g_1     -0.00853 Pi_u_2 
    -0.00853 Pi_u_1      0.04826 Sig_g+      0.35157 Sig_u-      0.44893 Pi_u_2 
     0.44893 Pi_u_1      0.54079 Sig_g+      0.68391 Sig_u-      0.78475 Sig_g+ 
     0.82701 Pi_g_2 
 
  Peak memory usage:    816 Mb
  
  end of program scf
   
 Time(scf)  user:        0.8  user+sys:        0.8  wallclock:        1.2
  
  start of program der1a
  
  Peak memory usage:    673 Mb
  
  end of program der1a
   
 Time(der1a)  user:        0.2  user+sys:        0.2  wallclock:        0.2
  
  start of program rwr
  
  Peak memory usage:    522 Mb
  
  end of program rwr
   
 Time(rwr)  user:        0.2  user+sys:        0.2  wallclock:        0.2
  
  start of program der1b
  
   
  forces (hartrees/bohr) : total     
   
 atom  label           x              y              z
 ---- --------   -------------  -------------  -------------
    1 C1          0.000000E+00   0.000000E+00   0.000000E+00
    2 O2          0.000000E+00  -6.938894E-18   2.596251E-05
    3 O3         -6.938894E-18   0.000000E+00  -2.596251E-05
 -------------   -------------  -------------  -------------
     total       -6.938894E-18  -6.938894E-18   0.000000E+00
   
  Peak memory usage:    750 Mb
  
  end of program der1b
   
 Time(der1b)  user:        0.5  user+sys:        0.5  wallclock:        0.6
  
  start of program geopt
  
  geometry optimization step  4
  energy:            -188.39018874253 hartrees
  
  energy change:          -5.3172E-08 !  (  5.0000E-05 )
  gradient maximum:        2.5963E-05 #  (  4.5000E-04 )
  gradient rms:            1.8358E-05 #  (  3.0000E-04 )
  displacement maximum:    1.9324E-05 #  (  1.8000E-03 )
  displacement rms:        1.3664E-05 #  (  1.2000E-03 )
  
  predicted energy change:  -5.9539E-10
  step size:     0.00003
  trust radius:  0.30000
  
  ********************************************************
  **           Geometry optimization complete           **
  ********************************************************
  
  Checking the geometry optimization convergence pattern ...
  
  best                    worst
  ==0=====1=====2=====3=====4==
    ^                          
  
  Convergence category 0: monotonic convergence.
  Geometry optimization was OK.
  
  center of mass moved by:
     x:     0.0000E+00     y:     0.0000E+00     z:     0.0000E+00
  
  final geometry: 
                                   angstroms
  atom               x                 y                 z
  C1            0.0000000000      0.0000000000      0.0000000000 
  O2            0.0000000000      0.0000000000      1.1808172430 
  O3            0.0000000000      0.0000000000     -1.1808172430 
   
  principal moments of inertia:
        amu*angstrom^2:        0.00000       44.60436       44.60436
                g*cm^2: 0.00000000E+00 7.40672701E-39 7.40672701E-39
   
  rotational constants:
               cm^(-1):        infinite      0.37793682      0.37793682
                   GHz:        infinite     11.33026071     11.33026071
   
  nuclear repulsion energy.......      57.362545630 hartrees
  -------------------------------------------------
 /  end of geometry optimization iteration   4   /
 -------------------------------------------------
   
  Peak memory usage:    643 Mb
  
  end of program geopt
   
 Time(geopt)  user:        0.4  user+sys:        0.4  wallclock:        0.9
  
  start of program ch
  
  Atomic charges from Mulliken population analysis: 
   
 Atom       C1           O2           O3      
 Charge    0.59140     -0.29570     -0.29570
  
  sum of atomic charges:    -0.000000
   
  Peak memory usage:    680 Mb
  
  end of program ch
   
 Time(ch)  user:        0.5  user+sys:        0.5  wallclock:        0.7
  
  start of program cutabab2
  
  Peak memory usage:    617 Mb
  
  end of program cutabab2
   
 Time(cutabab2)  user:        0.2  user+sys:        0.2  wallclock:        0.2
  
  start of program der2a
  
  Peak memory usage:    673 Mb
  
  end of program der2a
   
 Time(der2a)  user:        0.2  user+sys:        0.2  wallclock:        0.3
  
  start of program grid
  
  
   Turning symmetry off because some of the
   following programs cannot use it.
  
   grid     grid set  grid #  grid sym
  ------    --------  ------  --------
  coarse        0        0        1
  medium        2        1       16
  fine          0        0        1
  ultrafine     4        2       16
  charge        0        0        1
  gradient      4        2       16
  density       0        0        1
  DFT-fine    -11        3       16
  DFT-med.    -10        4       16
  DFT-grad    -12        5       16
  DFT-der2     -8        6       16
  DFT-cphf     -9        7       16
  LMP2-enrg     4        2       16
  LMP2-grad     2        1       16
  DFT-cphf2   -15        8       16
  PBF-dens      0        0        1
  plotting      0        0        1
  Rel-grad    -17        0        1
  
   
  number of gridpoints: 
     atom        C1       O2       O3    total
  grid # 1      102      125      125      352
  grid # 2      406      523      523     1452
  grid # 3     4304     4304     4304    12912
  grid # 4     1192     1192     1192     3576
  grid # 5     5226     5226     5226    15678
  grid # 6    12650    23504    23504    59658
  grid # 7      688      714      714     2116
  grid # 8      358      360      360     1078
   
  Peak memory usage:    639 Mb
  
  end of program grid
   
 Time(grid)  user:        0.3  user+sys:        0.3  wallclock:        0.6
  
  start of program der2b
  
  Peak memory usage:    806 Mb
  
  end of program der2b
   
 Time(der2b)  user:        1.7  user+sys:        1.7  wallclock:        1.8
  
  start of program der2nda
  
 
  Peak memory usage:    671 Mb
  
  end of program der2nda
   
 Time(der2nda)  user:        0.1  user+sys:        0.1  wallclock:        0.1
  
  start of program der2ndb
  
  Peak memory usage:    634 Mb
  
  end of program der2ndb
   
 Time(der2ndb)  user:        3.0  user+sys:        3.0  wallclock:        3.0
  
  start of program rwr
  
  Peak memory usage:    519 Mb
  
  end of program rwr
   
 Time(rwr)  user:        0.3  user+sys:        0.3  wallclock:        0.3
  
  start of program cphfa
  
       1  vectors produced in CPHF
  
     v    i  j  k  i  g
     e    t  c  c  c  r
     c    e  o  o  u  i
     t    r  r  r  t  d       RMS  
  
     1    1  0  0  6  M     5.0E-02
     1    2  0  0  6  M     4.3E-03
     1    3  0  0  6  M     3.6E-04
     1    4  0  0  6  M     2.6E-05
  
  
  Atomic Polar Tensors (au): Total
  =========================
  
  APT for atom C1      
  --------------------------------------
        0.4468      -0.0000      -0.0000
       -0.0000       0.4468      -0.0000
        0.0000      -0.0000       1.9874
  --------------------------------------
  
  APT for atom O2      
  --------------------------------------
       -0.2234      -0.0000       0.0000
       -0.0000      -0.2234       0.0000
       -0.0000      -0.0000      -0.9937
  --------------------------------------
  
  APT for atom O3      
  --------------------------------------
       -0.2234       0.0000       0.0000
        0.0000      -0.2234       0.0000
        0.0000       0.0000      -0.9937
  --------------------------------------
  
  Peak memory usage:    742 Mb
  
  end of program cphfa
   
 Time(cphfa)  user:        1.1  user+sys:        1.1  wallclock:        1.1
  
  start of program freq
  
   
  harmonic frequencies in cm**-1, reduced masses in amu,
  force constants in mDyne/A, and
  normal modes in cartesian coordinates:
  IR intensities in km/mol
  
  frequencies       613.48   613.48  1322.47  2388.01
  symmetries       Pi_u_1   Pi_u_2   Sig_g+   Sig_u-  
  intensities        22.30    22.30     0.00   441.23
  reduc. mass         6.94     6.94     8.00     6.94
  force const         1.54     1.54     8.24    23.32
    C1       X    -0.24609  0.00639  0.00000 -0.00000
    C1       Y    -0.00639 -0.24609  0.00000 -0.00000
    C1       Z     0.00000  0.00000 -0.00000 -0.24617
    O2       X     0.09231 -0.00240 -0.00000  0.00000
    O2       Y     0.00240  0.09231 -0.00000  0.00000
    O2       Z    -0.00000 -0.00000 -0.17680  0.09234
    O3       X     0.09231 -0.00240 -0.00000  0.00000
    O3       Y     0.00240  0.09231 -0.00000  0.00000
    O3       Z     0.00000  0.00000  0.17680  0.09234
  
  Number of imaginary frequencies:   0
   
  Writing vibrational animation data to CO2.01.vib
  Writing vibrational spectrum data to CO2.01_vib.spm
  
  Thermochemical properties at    1.0000 atm
  
  rotational symmetry number:  2

  rotational temperatures (K):      0.543766      0.543766
   
  vibrational temperatures:
       mode:      1        2        3        4
  temp. (K):   882.66   882.67  1902.74  3435.81
   
   
  Thermodynamic properties calculated assuming an ideal gas

  In the table below, the units for temperature
  are kelvins, the units for U, H, and G are
  kcal/mol and the units for Cv and S are cal/(mol K)

  The zero point energy (ZPE):      7.058 kcal/mol
  is not included in U, H, or G in the table below


  T =   298.15 K
   
              U         Cv          S          H          G        ln(Q)
          ---------  ---------  ---------  ---------  ---------  ---------
  trans.      0.889      2.981     37.270      1.481     -9.631   16.25506
    rot.      0.592      1.987     13.143      0.592     -3.326    5.61369
    vib.      0.198      2.147      0.879      0.198     -0.064    0.10807
   elec.      0.000      0.000      0.000      0.000      0.000    0.00000
   total      1.679      7.115     51.292      2.272    -13.021   21.97682
   
  Total internal energy, Utot (SCFE + ZPE + U):    -188.376264 hartrees
              Total enthalpy, Htot (Utot + pV):    -188.375320 hartrees
    Total Gibbs free energy, Gtot (Htot - T*S):    -188.399691 hartrees


  T =   323.15 K
   
              U         Cv          S          H          G        ln(Q)
          ---------  ---------  ---------  ---------  ---------  ---------
  trans.      0.963      2.981     37.670      1.605    -10.568   16.45636
    rot.      0.642      1.987     13.303      0.642     -3.657    5.69421
    vib.      0.255      2.407      1.062      0.255     -0.088    0.13749
   elec.      0.000      0.000      0.000      0.000      0.000    0.00000
   total      1.860      7.375     52.035      2.503    -14.313   22.28805
   
  Total internal energy, Utot (SCFE + ZPE + U):    -188.375976 hartrees
              Total enthalpy, Htot (Utot + pV):    -188.374952 hartrees
    Total Gibbs free energy, Gtot (Htot - T*S):    -188.401749 hartrees


  T =   348.15 K
   
              U         Cv          S          H          G        ln(Q)
          ---------  ---------  ---------  ---------  ---------  ---------
  trans.      1.038      2.981     38.040      1.730    -11.514   16.64265
    rot.      0.692      1.987     13.451      0.692     -3.991    5.76872
    vib.      0.318      2.651      1.251      0.318     -0.117    0.16940
   elec.      0.000      0.000      0.000      0.000      0.000    0.00000
   total      2.048      7.619     52.742      2.740    -15.622   22.58077
   
  Total internal energy, Utot (SCFE + ZPE + U):    -188.375677 hartrees
              Total enthalpy, Htot (Utot + pV):    -188.374574 hartrees
    Total Gibbs free energy, Gtot (Htot - T*S):    -188.403836 hartrees


  T =   373.15 K
   
              U         Cv          S          H          G        ln(Q)
          ---------  ---------  ---------  ---------  ---------  ---------
  trans.      1.112      2.981     38.385      1.854    -12.470   16.81602
    rot.      0.742      1.987     13.589      0.742     -4.329    5.83807
    vib.      0.387      2.880      1.443      0.387     -0.151    0.20345
   elec.      0.000      0.000      0.000      0.000      0.000    0.00000
   total      2.241      7.848     53.416      2.983    -16.949   22.85754
   
  Total internal energy, Utot (SCFE + ZPE + U):    -188.375369 hartrees
              Total enthalpy, Htot (Utot + pV):    -188.374187 hartrees
    Total Gibbs free energy, Gtot (Htot - T*S):    -188.405951 hartrees


  T =   398.15 K
   
              U         Cv          S          H          G        ln(Q)
          ---------  ---------  ---------  ---------  ---------  ---------
  trans.      1.187      2.981     38.707      1.978    -13.433   16.97814
    rot.      0.791      1.987     13.718      0.791     -4.670    5.90292
    vib.      0.462      3.095      1.636      0.462     -0.189    0.23932
   elec.      0.000      0.000      0.000      0.000      0.000    0.00000
   total      2.440      8.063     54.061      3.231    -18.293   23.12038
   
  Total internal energy, Utot (SCFE + ZPE + U):    -188.375052 hartrees
              Total enthalpy, Htot (Utot + pV):    -188.373791 hartrees
    Total Gibbs free energy, Gtot (Htot - T*S):    -188.408092 hartrees


  T =   423.15 K
   
              U         Cv          S          H          G        ln(Q)
          ---------  ---------  ---------  ---------  ---------  ---------
  trans.      1.261      2.981     39.010      2.102    -14.405   17.13039
    rot.      0.841      1.987     13.839      0.841     -5.015    5.96382
    vib.      0.542      3.297      1.831      0.542     -0.233    0.27672
   elec.      0.000      0.000      0.000      0.000      0.000    0.00000
   total      2.644      8.265     54.679      3.485    -19.652   23.37092
   
  Total internal energy, Utot (SCFE + ZPE + U):    -188.374726 hartrees
              Total enthalpy, Htot (Utot + pV):    -188.373386 hartrees
    Total Gibbs free energy, Gtot (Htot - T*S):    -188.410258 hartrees


  T =   448.15 K
   
              U         Cv          S          H          G        ln(Q)
          ---------  ---------  ---------  ---------  ---------  ---------
  trans.      1.336      2.981     39.295      2.226    -15.384   17.27389
    rot.      0.891      1.987     13.953      0.891     -5.362    6.02122
    vib.      0.627      3.488      2.026      0.627     -0.281    0.31542
   elec.      0.000      0.000      0.000      0.000      0.000    0.00000
   total      2.853      8.456     55.273      3.744    -21.027   23.61052
   
  Total internal energy, Utot (SCFE + ZPE + U):    -188.374393 hartrees
              Total enthalpy, Htot (Utot + pV):    -188.372974 hartrees
    Total Gibbs free energy, Gtot (Htot - T*S):    -188.412449 hartrees


  T =   473.15 K
   
              U         Cv          S          H          G        ln(Q)
          ---------  ---------  ---------  ---------  ---------  ---------
  trans.      1.410      2.981     39.564      2.351    -16.369   17.40960
    rot.      0.940      1.987     14.060      0.940     -5.712    6.07550
    vib.      0.716      3.669      2.220      0.716     -0.334    0.35520
   elec.      0.000      0.000      0.000      0.000      0.000    0.00000
   total      3.067      8.637     55.845      4.007    -22.416   23.84030
   
  Total internal energy, Utot (SCFE + ZPE + U):    -188.374053 hartrees
              Total enthalpy, Htot (Utot + pV):    -188.372554 hartrees
    Total Gibbs free energy, Gtot (Htot - T*S):    -188.414662 hartrees


  T =   498.15 K
   
              U         Cv          S          H          G        ln(Q)
          ---------  ---------  ---------  ---------  ---------  ---------
  trans.      1.485      2.981     39.820      2.475    -17.362   17.53832
    rot.      0.990      1.987     14.163      0.990     -6.065    6.12699
    vib.      0.810      3.840      2.413      0.810     -0.392    0.39588
   elec.      0.000      0.000      0.000      0.000      0.000    0.00000
   total      3.285      8.808     56.396      4.275    -23.819   24.06119
   
  Total internal energy, Utot (SCFE + ZPE + U):    -188.373705 hartrees
              Total enthalpy, Htot (Utot + pV):    -188.372128 hartrees
    Total Gibbs free energy, Gtot (Htot - T*S):    -188.416898 hartrees


  T =   523.15 K
   
              U         Cv          S          H          G        ln(Q)
          ---------  ---------  ---------  ---------  ---------  ---------
  trans.      1.559      2.981     40.064      2.599    -18.360   17.66074
    rot.      1.040      1.987     14.260      1.040     -6.421    6.17596
    vib.      0.908      4.003      2.605      0.908     -0.455    0.43731
   elec.      0.000      0.000      0.000      0.000      0.000    0.00000
   total      3.507      8.971     56.929      4.547    -25.235   24.27400
   
  Total internal energy, Utot (SCFE + ZPE + U):    -188.373351 hartrees
              Total enthalpy, Htot (Utot + pV):    -188.371694 hartrees
    Total Gibbs free energy, Gtot (Htot - T*S):    -188.419156 hartrees


  T =   548.15 K
   
              U         Cv          S          H          G        ln(Q)
          ---------  ---------  ---------  ---------  ---------  ---------
  trans.      1.634      2.981     40.295      2.723    -19.365   17.77744
    rot.      1.089      1.987     14.353      1.089     -6.778    6.22264
    vib.      1.010      4.158      2.796      1.010     -0.522    0.47935
   elec.      0.000      0.000      0.000      0.000      0.000    0.00000
   total      3.734      9.126     57.444      4.823    -26.665   24.47943
   
  Total internal energy, Utot (SCFE + ZPE + U):    -188.372991 hartrees
              Total enthalpy, Htot (Utot + pV):    -188.371255 hartrees
    Total Gibbs free energy, Gtot (Htot - T*S):    -188.421434 hartrees


  T =   573.15 K
   
              U         Cv          S          H          G        ln(Q)
          ---------  ---------  ---------  ---------  ---------  ---------
  trans.      1.708      2.981     40.517      2.847    -20.375   17.88894
    rot.      1.139      1.987     14.441      1.139     -7.138    6.26724
    vib.      1.116      4.305      2.985      1.116     -0.594    0.52188
   elec.      0.000      0.000      0.000      0.000      0.000    0.00000
   total      3.964      9.273     57.943      5.103    -28.107   24.67805
   
  Total internal energy, Utot (SCFE + ZPE + U):    -188.372624 hartrees
              Total enthalpy, Htot (Utot + pV):    -188.370809 hartrees
    Total Gibbs free energy, Gtot (Htot - T*S):    -188.423733 hartrees


  T =   598.15 K
   
              U         Cv          S          H          G        ln(Q)
          ---------  ---------  ---------  ---------  ---------  ---------
  trans.      1.783      2.981     40.729      2.972    -21.391   17.99567
    rot.      1.189      1.987     14.526      1.189     -7.500    6.30993
    vib.      1.226      4.446      3.171      1.226     -0.671    0.56481
   elec.      0.000      0.000      0.000      0.000      0.000    0.00000
   total      4.197      9.414     58.427      5.386    -29.562   24.87041
   
  Total internal energy, Utot (SCFE + ZPE + U):    -188.372252 hartrees
              Total enthalpy, Htot (Utot + pV):    -188.370358 hartrees
    Total Gibbs free energy, Gtot (Htot - T*S):    -188.426051 hartrees


  T =   623.15 K
   
              U         Cv          S          H          G        ln(Q)
          ---------  ---------  ---------  ---------  ---------  ---------
  trans.      1.857      2.981     40.933      3.096    -22.411   18.09804
    rot.      1.238      1.987     14.608      1.238     -7.864    6.35088
    vib.      1.338      4.580      3.356      1.338     -0.753    0.60804
   elec.      0.000      0.000      0.000      0.000      0.000    0.00000
   total      4.434      9.548     58.896      5.673    -31.029   25.05695
   
  Total internal energy, Utot (SCFE + ZPE + U):    -188.371874 hartrees
              Total enthalpy, Htot (Utot + pV):    -188.369901 hartrees
    Total Gibbs free energy, Gtot (Htot - T*S):    -188.428388 hartrees


  T =   648.15 K
   
              U         Cv          S          H          G        ln(Q)
          ---------  ---------  ---------  ---------  ---------  ---------
  trans.      1.932      2.981     41.128      3.220    -23.437   18.19638
    rot.      1.288      1.987     14.686      1.288     -8.231    6.39021
    vib.      1.455      4.709      3.539      1.455     -0.839    0.65151
   elec.      0.000      0.000      0.000      0.000      0.000    0.00000
   total      4.675      9.677     59.353      5.963    -32.507   25.23809
   
  Total internal energy, Utot (SCFE + ZPE + U):    -188.371491 hartrees
              Total enthalpy, Htot (Utot + pV):    -188.369438 hartrees
    Total Gibbs free energy, Gtot (Htot - T*S):    -188.430743 hartrees


  T =   673.15 K
   
              U         Cv          S          H          G        ln(Q)
          ---------  ---------  ---------  ---------  ---------  ---------
  trans.      2.007      2.981     41.316      3.344    -24.468   18.29099
    rot.      1.338      1.987     14.761      1.338     -8.599    6.42806
    vib.      1.574      4.831      3.719      1.574     -0.930    0.69514
   elec.      0.000      0.000      0.000      0.000      0.000    0.00000
   total      4.918      9.799     59.796      6.256    -33.996   25.41418
   
  Total internal energy, Utot (SCFE + ZPE + U):    -188.371103 hartrees
              Total enthalpy, Htot (Utot + pV):    -188.368971 hartrees
    Total Gibbs free energy, Gtot (Htot - T*S):    -188.433117 hartrees


  T =   698.15 K
   
              U         Cv          S          H          G        ln(Q)
          ---------  ---------  ---------  ---------  ---------  ---------
  trans.      2.081      2.981     41.497      3.468    -25.503   18.38215
    rot.      1.387      1.987     14.834      1.387     -8.969    6.46452
    vib.      1.696      4.948      3.898      1.696     -1.025    0.73888
   elec.      0.000      0.000      0.000      0.000      0.000    0.00000
   total      5.164      9.916     60.228      6.552    -35.497   25.58555
   
  Total internal energy, Utot (SCFE + ZPE + U):    -188.370710 hartrees
              Total enthalpy, Htot (Utot + pV):    -188.368499 hartrees
    Total Gibbs free energy, Gtot (Htot - T*S):    -188.435508 hartrees


  T =   723.15 K
   
              U         Cv          S          H          G        ln(Q)
          ---------  ---------  ---------  ---------  ---------  ---------
  trans.      2.156      2.981     41.672      3.593    -26.542   18.47011
    rot.      1.437      1.987     14.903      1.437     -9.340    6.49971
    vib.      1.821      5.060      4.074      1.821     -1.125    0.78267
   elec.      0.000      0.000      0.000      0.000      0.000    0.00000
   total      5.414     10.028     60.649      6.851    -37.008   25.75249
   
  Total internal energy, Utot (SCFE + ZPE + U):    -188.370313 hartrees
              Total enthalpy, Htot (Utot + pV):    -188.368023 hartrees
    Total Gibbs free energy, Gtot (Htot - T*S):    -188.437916 hartrees


  T =   748.15 K
   
              U         Cv          S          H          G        ln(Q)
          ---------  ---------  ---------  ---------  ---------  ---------
  trans.      2.230      2.981     41.841      3.717    -27.586   18.55508
    rot.      1.487      1.987     14.971      1.487     -9.714    6.53369
    vib.      1.949      5.167      4.248      1.949     -1.229    0.82649
   elec.      0.000      0.000      0.000      0.000      0.000    0.00000
   total      5.666     10.135     61.059      7.153    -38.529   25.91526
   
  Total internal energy, Utot (SCFE + ZPE + U):    -188.369911 hartrees
              Total enthalpy, Htot (Utot + pV):    -188.367542 hartrees
    Total Gibbs free energy, Gtot (Htot - T*S):    -188.440340 hartrees


  T =   773.15 K
   
              U         Cv          S          H          G        ln(Q)
          ---------  ---------  ---------  ---------  ---------  ---------
  trans.      2.305      2.981     42.004      3.841    -28.634   18.63725
    rot.      1.536      1.987     15.036      1.536    -10.089    6.56656
    vib.      2.079      5.269      4.419      2.079     -1.337    0.87028
   elec.      0.000      0.000      0.000      0.000      0.000    0.00000
   total      5.921     10.238     61.459      7.457    -40.060   26.07409
   
  Total internal energy, Utot (SCFE + ZPE + U):    -188.369505 hartrees
              Total enthalpy, Htot (Utot + pV):    -188.367057 hartrees
    Total Gibbs free energy, Gtot (Htot - T*S):    -188.442781 hartrees


  T =   798.15 K
   
              U         Cv          S          H          G        ln(Q)
          ---------  ---------  ---------  ---------  ---------  ---------
  trans.      2.379      2.981     42.162      3.965    -29.687   18.71681
    rot.      1.586      1.987     15.100      1.586    -10.466    6.59839
    vib.      2.212      5.367      4.588      2.212     -1.450    0.91401
   elec.      0.000      0.000      0.000      0.000      0.000    0.00000
   total      6.178     10.335     61.850      7.764    -41.602   26.22920
   
  Total internal energy, Utot (SCFE + ZPE + U):    -188.369096 hartrees
              Total enthalpy, Htot (Utot + pV):    -188.366568 hartrees
    Total Gibbs free energy, Gtot (Htot - T*S):    -188.445237 hartrees


  T =   823.15 K
   
              U         Cv          S          H          G        ln(Q)
          ---------  ---------  ---------  ---------  ---------  ---------
  trans.      2.454      2.981     42.315      4.089    -30.743   18.79392
    rot.      1.636      1.987     15.161      1.636    -10.844    6.62923
    vib.      2.348      5.461      4.755      2.348     -1.566    0.95765
   elec.      0.000      0.000      0.000      0.000      0.000    0.00000
   total      6.437     10.429     62.232      8.073    -43.153   26.38079
   
  Total internal energy, Utot (SCFE + ZPE + U):    -188.368682 hartrees
              Total enthalpy, Htot (Utot + pV):    -188.366075 hartrees
    Total Gibbs free energy, Gtot (Htot - T*S):    -188.447709 hartrees


  T =   848.15 K
   
              U         Cv          S          H          G        ln(Q)
          ---------  ---------  ---------  ---------  ---------  ---------
  trans.      2.528      2.981     42.464      4.214    -31.802   18.86871
    rot.      1.685      1.987     15.220      1.685    -11.224    6.65915
    vib.      2.485      5.550      4.920      2.485     -1.687    1.00118
   elec.      0.000      0.000      0.000      0.000      0.000    0.00000
   total      6.699     10.518     62.604      8.385    -44.713   26.52904
   
  Total internal energy, Utot (SCFE + ZPE + U):    -188.368265 hartrees
              Total enthalpy, Htot (Utot + pV):    -188.365579 hartrees
    Total Gibbs free energy, Gtot (Htot - T*S):    -188.450196 hartrees


  T =   873.15 K
   
              U         Cv          S          H          G        ln(Q)
          ---------  ---------  ---------  ---------  ---------  ---------
  trans.      2.603      2.981     42.608      4.338    -32.866   18.94134
    rot.      1.735      1.987     15.278      1.735    -11.605    6.68820
    vib.      2.625      5.636      5.082      2.625     -1.812    1.04458
   elec.      0.000      0.000      0.000      0.000      0.000    0.00000
   total      6.963     10.604     62.969      8.698    -46.283   26.67411
   
  Total internal energy, Utot (SCFE + ZPE + U):    -188.367844 hartrees
              Total enthalpy, Htot (Utot + pV):    -188.365079 hartrees
    Total Gibbs free energy, Gtot (Htot - T*S):    -188.452697 hartrees


  T =   898.15 K
   
              U         Cv          S          H          G        ln(Q)
          ---------  ---------  ---------  ---------  ---------  ---------
  trans.      2.677      2.981     42.749      4.462    -33.933   19.01191
    rot.      1.785      1.987     15.334      1.785    -11.988    6.71643
    vib.      2.767      5.717      5.243      2.767     -1.942    1.08782
   elec.      0.000      0.000      0.000      0.000      0.000    0.00000
   total      7.229     10.685     63.325      9.014    -47.862   26.81616
   
  Total internal energy, Utot (SCFE + ZPE + U):    -188.367420 hartrees
              Total enthalpy, Htot (Utot + pV):    -188.364576 hartrees
    Total Gibbs free energy, Gtot (Htot - T*S):    -188.455213 hartrees
   
  Peak memory usage:    643 Mb
  
  end of program freq
   
 Time(freq)  user:        0.5  user+sys:        0.5  wallclock:        0.8

 Total cpu seconds     user:      12.062   user+sys:      12.062
  
 Total elapsed time:    64 seconds

Job CO2.01 completed on ion.wag.caltech.edu at Thu Jul  8 09:51:37 2021
