Job H2.01 started on node-3-13.local at Fri Apr 13 22:38:53 2018
jobid: node-3-13-0-5ad193ed

  +--------------------------------------------------------------------+
  |  Jaguar version 7.9, release  25                                   |
  |                                                                    |
  |  Copyright Schrodinger, LLC                                        |
  |  All Rights Reserved.                                              |
  |                                                                    |
  |  Use of this program should be acknowledged in publications as:    |
  |  Jaguar, version 7.9, Schrodinger, LLC, New York, NY, 2011.        |
  +--------------------------------------------------------------------+
  
  start of program pre
  
  Job name: H2.01
  Executables used: /project/exec/schrodinger_2012/jaguar-v79025/bin/Linux-x86_64
  Temporary files : /temp1/jqian/H2.01
  Maestro file (input):  H2.01.mae
  Maestro file (output): H2.02.mae
  
  
  basis set:             lacvp**         
  net molecular charge:    0
  multiplicity:            1
  
  number of basis functions....           10
  
 Input geometry:
                                   angstroms
  atom               x                 y                 z
  H1            0.0000000000      0.0000000000      0.0000000000 
  H2            0.0000000000      0.0000000000      0.7440000000 
   
  principal moments of inertia:
        amu*angstrom^2:        0.00000        0.27893        0.27893
                g*cm^2: 0.00000000E+00 4.63180279E-41 4.63180279E-41
   
  rotational constants:
               cm^(-1):       infinite    60.43596744    60.43596744
                   GHz:       infinite  1811.82472304  1811.82472304
   
  Z-matrix: (angstroms and degrees) 
 H1
 H2   H1 0.7440000000
  
  Molecular weight:       2.02 amu
   
  Stoichiometry: H2
  Molecule is linear 
  Molecular Point Group: D_inf_h 
	Molecule translated to center of mass 
	Molecule reoriented along symmetry axes
  Point Group used: D_inf_h
  
 
Number of optimization coordinates:     1
Number of independent coordinates:      1
Number of non-redundant coordinates:    1
Number of frozen coordinates:           0
Number of harmonic constraints:         0
 
Number of geometric degrees of freedom:     1
Maximum geometric degrees of freedom:       1
 " " " " " excluding dummy atoms:           1
 
  
 Symmetrized geometry:
                                   angstroms
  atom               x                 y                 z
  H1            0.0000000000      0.0000000000      0.3720000000 
  H2            0.0000000000      0.0000000000     -0.3720000000 
   
  Z-matrix: (angstroms and degrees) 
 H1
 H2   H1 0.7440000000
  
  nuclear repulsion energy.......       0.711259692 hartrees
 
 Non-default options chosen:
   SCF calculation type: DFT(pbe)        
   DFT=PBE(X+LC)+PW91 (PBE)
   Geometry will be optimized in redundant internal coordinates
   Vibrational frequencies and related properties will be computed
      from analytic second derivatives
   IR intensities will be computed
   Thermochemical data will be computed for  25 temperatures starting at
       298.15 K, at intervals of   25.00 K
   Highest accuracy cutoffs used in SCF
   Maximum number of geometry steps:   10
   Mulliken populations computed by atom
  
  Peak memory usage:    326 Mb
  
  end of program pre
   
 Time(pre)  user:        0.0  user+sys:        0.0  wallclock:        0.1
  
  start of program onee
  
  smallest eigenvalue of S:    9.704E-02
  number of canonical orbitals.....           10
  Peak memory usage:    492 Mb
  
  end of program onee
   
 Time(onee)  user:        0.0  user+sys:        0.0  wallclock:        0.2
  
  start of program hfig
  
  initial wavefunction generated automatically from atomic wavefunctions
 
  Irreducible     Total no   No of occupied orbitals 
  representation  orbitals   Shell_1  Shell_2    ...
  Sig_g+             3          1
  Sig_g-             0          0
  Del_g_1            0          0
  Del_g_2            0          0
  Pi_g_2             1          0
  Pi_g_1             1          0
  Sig_u+             0          0
  Sig_u-             3          0
  Del_u_1            0          0
  Del_u_2            0          0
  Pi_u_2             1          0
  Pi_u_1             1          0
  ------------------------
  Orbital occupation/shell    1.000
 
  Peak memory usage:    424 Mb
  
  end of program hfig
   
 Time(hfig)  user:        0.0  user+sys:        0.0  wallclock:        0.1
  
  start of program probe
  
  Peak memory usage:    424 Mb
  
  end of program probe
   
 Time(probe)  user:        0.0  user+sys:        0.0  wallclock:        0.2
  
  start of program grid
  
  
   grid     grid set  grid #  grid sym
  ------    --------  ------  --------
  coarse        0        0        1
  medium        2        1       16
  fine          0        0        1
  ultrafine     4        2       16
  charge        0        0        1
  gradient      4        2       16
  density       0        0        1
  DFT-fine    -11        3       16
  DFT-med.    -10        4       16
  DFT-grad    -12        5       16
  DFT-der2     -8        6       16
  DFT-cphf     -9        7       16
  LMP2-enrg     4        2       16
  LMP2-grad     2        1       16
  DFT-cphf2   -15        8       16
  PBF-dens      0        0        1
  plotting      0        0        1
  
   
  number of gridpoints: 
     atom        H1       H2    total
  grid # 1       26        0       26
  grid # 2       96        0       96
  grid # 3      939        0      939
  grid # 4      337        0      337
  grid # 5     1079        0     1079
  grid # 6     2411        0     2411
  grid # 7      187        0      187
  grid # 8      106        0      106
   
  Peak memory usage:    457 Mb
  
  end of program grid
   
 Time(grid)  user:        0.0  user+sys:        0.0  wallclock:        0.1
  
  start of program rwr
  
  Peak memory usage:    331 Mb
  
  end of program rwr
   
 Time(rwr)  user:        0.0  user+sys:        0.0  wallclock:        0.2
  
  start of program scf
  
 number of electrons..........          2
 number of alpha electrons....          1
 number of beta electrons.....          1
 number of orbitals, total....         10
 number of doubly-occ'd orbs..          1
 number of open shell orbs....          0
 number of occupied orbitals..          1
 number of virtual orbitals...          9
 number of hamiltonians.......          1
 number of shells.............          1
 SCF type: DFT=PBE(X+LC)+PW91 (PBE)
  
       i  u  d  i  g                   
       t  p  i  c  r                                 RMS    maximum
       e  d  i  u  i                       energy  density   DIIS  
       r  t  s  t  d       total energy    change  change    error 
  
etot   1  N  N  1  U      -1.12129148630           1.1E-02  1.2E-01
etot   2  N  Y  1  U      -1.16108390198  4.0E-02  4.0E-03  3.3E-02
etot   3  N  Y  1  U      -1.16458742269  3.5E-03  4.9E-04  4.5E-03
etot   4  N  Y  1  U      -1.16463920377  5.2E-05  7.5E-05  6.7E-04
etot   5  N  Y  1  U      -1.16464042808  1.2E-06  1.1E-05  9.4E-05
etot   6  N  Y  1  U      -1.16464045170  2.4E-08  1.5E-06  1.3E-05
etot   7  N  N  1  U      -1.16464045215  4.5E-10  0.0E+00  0.0E+00
  
  
 Energy components, in hartrees:
   (A)  Nuclear repulsion............       0.71125969194
   (E)  Total one-electron terms.....      -2.50064696693
   (I)  Total two-electron terms.....       0.62474682285
   (J)    Coulomb....................       1.31690959205
   (K)    Exchange+Correlation.......      -0.69216276920
   (L)  Electronic energy............      -1.87590014408  (E+I)
   (N)  Total energy.................      -1.16464045215  (A+L)
  
 SCFE: SCF energy: DFT(pbe)        -1.16464045215 hartrees   iterations:   7
  
 
 HOMO energy:    -0.37771
 LUMO energy:     0.07937
 
  Orbital energies (hartrees)/symmetry label: 
    -0.37771 Sig_g+      0.07937 Sig_u-      0.54874 Sig_g+      0.98596 Sig_u- 
     1.60882 Pi_u_2      1.60882 Pi_u_1      2.30643 Sig_g+      2.54317 Pi_g_2 
     2.54317 Pi_g_1      4.07439 Sig_u- 
 
  Peak memory usage:    561 Mb
  
  end of program scf
   
 Time(scf)  user:        0.0  user+sys:        0.0  wallclock:        0.4
  
  start of program der1a
  
  Peak memory usage:    492 Mb
  
  end of program der1a
   
 Time(der1a)  user:        0.0  user+sys:        0.0  wallclock:        0.2
  
  start of program rwr
  
  Peak memory usage:    331 Mb
  
  end of program rwr
   
 Time(rwr)  user:        0.0  user+sys:        0.0  wallclock:        0.1
  
  start of program der1b
  
   
  forces (hartrees/bohr) : total     
   
 atom  label           x              y              z
 ---- --------   -------------  -------------  -------------
    1 H1          0.000000E+00   0.000000E+00   4.274286E-03
    2 H2          0.000000E+00   0.000000E+00  -4.274286E-03
 -------------   -------------  -------------  -------------
     total        0.000000E+00   0.000000E+00   0.000000E+00
   
  Peak memory usage:    561 Mb
  
  end of program der1b
   
 Time(der1b)  user:        0.0  user+sys:        0.0  wallclock:        0.2
  
  start of program geopt
  
  geometry optimization step  1
  energy:              -1.16464045215 hartrees
  
  gradient maximum:        4.2743E-03 .  (  4.5000E-04 )
  gradient rms:            4.2743E-03 .  (  3.0000E-04 )
  displacement maximum:    1.1341E-02 .  (  1.8000E-03 )
  displacement rms:        1.1341E-02 .  (  1.2000E-03 )
  
  predicted energy change:  -2.4240E-05
  step size:     0.01134
  trust radius:  0.30000
  
  molecular structure not yet converged...
  
  center of mass moved by:
     x:     0.0000E+00     y:     0.0000E+00     z:     0.0000E+00
  
  new geometry: 
                                   angstroms
  atom               x                 y                 z
  H1            0.0000000000      0.0000000000      0.3750005691 
  H2            0.0000000000      0.0000000000     -0.3750005691 
   
  Z-matrix: (angstroms and degrees) 
 H1
 H2   H1 0.7500011382
  
  nuclear repulsion energy.......       0.705568544 hartrees
  -------------------------------------------------
 /  end of geometry optimization iteration   1   /
 -------------------------------------------------
   
  Peak memory usage:    320 Mb
  
  end of program geopt
   
 Time(geopt)  user:        0.0  user+sys:        0.0  wallclock:        0.1
  
  start of program onee
  
  smallest eigenvalue of S:    9.827E-02
  number of canonical orbitals.....           10
  Peak memory usage:    492 Mb
  
  end of program onee
   
 Time(onee)  user:        0.0  user+sys:        0.0  wallclock:        0.2
  
  start of program probe
  
  Peak memory usage:    424 Mb
  
  end of program probe
   
 Time(probe)  user:        0.0  user+sys:        0.0  wallclock:        0.1
  
  start of program grid
  
  
   grid     grid set  grid #  grid sym
  ------    --------  ------  --------
  coarse        0        0        1
  medium        2        1       16
  fine          0        0        1
  ultrafine     4        2       16
  charge        0        0        1
  gradient      4        2       16
  density       0        0        1
  DFT-fine    -11        3       16
  DFT-med.    -10        4       16
  DFT-grad    -12        5       16
  DFT-der2     -8        6       16
  DFT-cphf     -9        7       16
  LMP2-enrg     4        2       16
  LMP2-grad     2        1       16
  DFT-cphf2   -15        8       16
  PBF-dens      0        0        1
  plotting      0        0        1
  
   
  number of gridpoints: 
     atom        H1       H2    total
  grid # 1       26        0       26
  grid # 2       96        0       96
  grid # 3      939        0      939
  grid # 4      337        0      337
  grid # 5     1079        0     1079
  grid # 6     2411        0     2411
  grid # 7      187        0      187
  grid # 8      106        0      106
   
  Peak memory usage:    457 Mb
  
  end of program grid
   
 Time(grid)  user:        0.0  user+sys:        0.0  wallclock:        0.1
  
  start of program rwr
  
  Peak memory usage:    331 Mb
  
  end of program rwr
   
 Time(rwr)  user:        0.0  user+sys:        0.0  wallclock:        0.1
  
  start of program scf
  
  
       i  u  d  i  g                   
       t  p  i  c  r                                 RMS    maximum
       e  d  i  u  i                       energy  density   DIIS  
       r  t  s  t  d       total energy    change  change    error 
  
etot   1  N  N  1  U      -1.16466036767           1.8E-04  1.3E-03
etot   2  N  Y  1  U      -1.16466481419  4.4E-06  1.2E-05  2.0E-04
etot   3  N  Y  1  U      -1.16466486576  5.2E-08  1.6E-06  1.9E-05
etot   4  N  N  1  U      -1.16466486647  7.1E-10  0.0E+00  0.0E+00
  
  
 Energy components, in hartrees:
   (A)  Nuclear repulsion............       0.70556854362
   (E)  Total one-electron terms.....      -2.49278105725
   (I)  Total two-electron terms.....       0.62254764715
   (J)    Coulomb....................       1.31282775372
   (K)    Exchange+Correlation.......      -0.69028010657
   (L)  Electronic energy............      -1.87023341009  (E+I)
   (N)  Total energy.................      -1.16466486647  (A+L)
  
 SCFE: SCF energy: DFT(pbe)        -1.16466486647 hartrees   iterations:   4
  
 
 HOMO energy:    -0.37665
 LUMO energy:     0.07758
 
  Orbital energies (hartrees)/symmetry label: 
    -0.37665 Sig_g+      0.07758 Sig_u-      0.55085 Sig_g+      0.98125 Sig_u- 
     1.60953 Pi_u_2      1.60953 Pi_u_1      2.29512 Sig_g+      2.53656 Pi_g_2 
     2.53656 Pi_g_1      4.04579 Sig_u- 
 
  Peak memory usage:    561 Mb
  
  end of program scf
   
 Time(scf)  user:        0.0  user+sys:        0.0  wallclock:        0.2
  
  start of program der1a
  
  Peak memory usage:    492 Mb
  
  end of program der1a
   
 Time(der1a)  user:        0.0  user+sys:        0.0  wallclock:        0.1
  
  start of program rwr
  
  Peak memory usage:    331 Mb
  
  end of program rwr
   
 Time(rwr)  user:        0.0  user+sys:        0.0  wallclock:        0.1
  
  start of program der1b
  
   
  forces (hartrees/bohr) : total     
   
 atom  label           x              y              z
 ---- --------   -------------  -------------  -------------
    1 H1          0.000000E+00   0.000000E+00   6.454866E-05
    2 H2          0.000000E+00   0.000000E+00  -6.454866E-05
 -------------   -------------  -------------  -------------
     total        0.000000E+00   0.000000E+00   0.000000E+00
   
  Peak memory usage:    561 Mb
  
  end of program der1b
   
 Time(der1b)  user:        0.0  user+sys:        0.0  wallclock:        0.2
  
  start of program geopt
  
  geometry optimization step  2
  energy:              -1.16466486647 hartrees
  
  energy change:          -2.4414E-05 *  (  5.0000E-05 )
  gradient maximum:        6.4549E-05 #  (  4.5000E-04 )
  gradient rms:            6.4549E-05 *  (  3.0000E-04 )
  displacement maximum:    1.7330E-04 #  (  1.8000E-03 )
  displacement rms:        1.7330E-04 #  (  1.2000E-03 )
  
  predicted energy change:  -5.6120E-09
  step size:     0.00017
  trust radius:  0.30000
  
  ********************************************************
  **           Geometry optimization complete           **
  ********************************************************
  
  Checking the geometry optimization convergence pattern ...
  
  best                    worst
  ==0=====1=====2=====3=====4==
    ^                          
  
  Convergence category 0: monotonic convergence.
  Geometry optimization was OK.
  
  center of mass moved by:
     x:     0.0000E+00     y:     0.0000E+00     z:     0.0000E+00
  
  final geometry: 
                                   angstroms
  atom               x                 y                 z
  H1            0.0000000000      0.0000000000      0.3750005691 
  H2            0.0000000000      0.0000000000     -0.3750005691 
   
  principal moments of inertia:
        amu*angstrom^2:        0.00000        0.28345        0.28345
                g*cm^2: 0.00000000E+00 4.70682481E-41 4.70682481E-41
   
  rotational constants:
               cm^(-1):       infinite    59.47267935    59.47267935
                   GHz:       infinite  1782.94607263  1782.94607263
   
  Z-matrix: (angstroms and degrees) 
 H1
 H2   H1 0.7500011382
  
  nuclear repulsion energy.......       0.705568544 hartrees
  -------------------------------------------------
 /  end of geometry optimization iteration   2   /
 -------------------------------------------------
   
  Peak memory usage:    320 Mb
  
  end of program geopt
   
 Time(geopt)  user:        0.0  user+sys:        0.0  wallclock:        0.1
  
  start of program ch
  
  Atomic charges from Mulliken population analysis: 
   
 Atom       H1           H2      
 Charge    0.00000      0.00000
  
  sum of atomic charges:     0.000000
   
  Peak memory usage:    372 Mb
  
  end of program ch
   
 Time(ch)  user:        0.0  user+sys:        0.0  wallclock:        0.1
  
  start of program cutabab2
  
  Peak memory usage:    441 Mb
  
  end of program cutabab2
   
 Time(cutabab2)  user:        0.0  user+sys:        0.0  wallclock:        0.2
  
  start of program der2a
  
  Peak memory usage:    492 Mb
  
  end of program der2a
   
 Time(der2a)  user:        0.0  user+sys:        0.0  wallclock:        0.1
  
  start of program grid
  
  
   Turning symmetry off because some of the
   following programs cannot use it.
  
   grid     grid set  grid #  grid sym
  ------    --------  ------  --------
  coarse        0        0        1
  medium        2        1       16
  fine          0        0        1
  ultrafine     4        2       16
  charge        0        0        1
  gradient      4        2       16
  density       0        0        1
  DFT-fine    -11        3       16
  DFT-med.    -10        4       16
  DFT-grad    -12        5       16
  DFT-der2     -8        6       16
  DFT-cphf     -9        7       16
  LMP2-enrg     4        2       16
  LMP2-grad     2        1       16
  DFT-cphf2   -15        8       16
  PBF-dens      0        0        1
  plotting      0        0        1
  
   
  number of gridpoints: 
     atom        H1       H2    total
  grid # 1      108      108      216
  grid # 2      435      435      870
  grid # 3     4304     4304     8608
  grid # 4     1192     1192     2384
  grid # 5     5226     5226    10452
  grid # 6    13718    13718    27436
  grid # 7      744      744     1488
  grid # 8      382      382      764
   
  Peak memory usage:    457 Mb
  
  end of program grid
   
 Time(grid)  user:        0.0  user+sys:        0.0  wallclock:        0.2
  
  start of program der2b
  
  Peak memory usage:    579 Mb
  
  end of program der2b
   
 Time(der2b)  user:        0.0  user+sys:        0.0  wallclock:        0.3
  
  start of program der2nda
  
 
  Peak memory usage:    492 Mb
  
  end of program der2nda
   
 Time(der2nda)  user:        0.0  user+sys:        0.0  wallclock:        0.2
  
  start of program der2ndb
  
  Peak memory usage:    455 Mb
  
  end of program der2ndb
   
 Time(der2ndb)  user:        0.0  user+sys:        0.0  wallclock:        0.4
  
  start of program rwr
  
  Peak memory usage:    331 Mb
  
  end of program rwr
   
 Time(rwr)  user:        0.0  user+sys:        0.0  wallclock:        0.2
  
  start of program cphfa
  
       1  vectors produced in CPHF
  
     v    i  j  k  i  g
     e    t  c  c  c  r
     c    e  o  o  u  i
     t    r  r  r  t  d       RMS  
  
     1    1  0  0  6  M     3.4E-01
     1    2  0  0  6  M     5.9E-09
  
  
  Atomic Polar Tensors (au): Total
  =========================
  
  APT for atom H1      
  --------------------------------------
        0.0000       0.0000       0.0000
        0.0000       0.0000       0.0000
        0.0000       0.0000       0.0000
  --------------------------------------
  
  APT for atom H2      
  --------------------------------------
        0.0000       0.0000       0.0000
        0.0000       0.0000       0.0000
        0.0000       0.0000       0.0000
  --------------------------------------
  
  Peak memory usage:    558 Mb
  
  end of program cphfa
   
 Time(cphfa)  user:        0.0  user+sys:        0.0  wallclock:        0.2
  
  start of program freq
  
   
  harmonic frequencies in cm**-1, reduced masses in amu,
  force constants in mDyne/A, and
  normal modes in cartesian coordinates:
  IR intensities in km/mol
  
  frequencies      4369.89
  symmetries       Sig_g+  
  intensities         0.00
  reduc. mass         0.50
  force const         5.67
    H1       X     0.00000
    H1       Y     0.00000
    H1       Z    -0.70436
    H2       X     0.00000
    H2       Y     0.00000
    H2       Z     0.70436
  
  Writing vibrational animation data to H2.01.vib
  Writing vibrational spectrum data to H2.01_vib.spm
  
  Thermochemical properties at    1.0000 atm
  
  rotational symmetry number:  2

  rotational temperatures (K):  85.567823  85.567823
   
  vibrational temperatures:
       mode:      1
  temp. (K):  6287.29
   
   
  Thermodynamic properties calculated assuming an ideal gas

  In the table below, the units for temperature
  are kelvins, the units for U, H, and G are
  kcal/mol and the units for Cv and S are cal/(mol K)

  The zero point energy (ZPE):      6.247 kcal/mol
  is not included in U, H, or G in the table below


  T =   298.15 K
   
              U         Cv          S          H          G        ln(Q)
          ---------  ---------  ---------  ---------  ---------  ---------
  trans.      0.889      2.981     28.080      1.481     -6.891   11.63054
    rot.      0.592      1.987      3.090      0.592     -0.329    0.55514
    vib.      0.000      0.000      0.000      0.000      0.000    0.00000
   elec.      0.000      0.000      0.000      0.000      0.000    0.00000
   total      1.481      4.968     31.171      2.074     -7.220   12.18568
   
  Total internal energy, Utot (SCFE + ZPE + U):      -1.152349 hartrees
              Total enthalpy, Htot (Utot + pV):      -1.151405 hartrees
    Total Gibbs free energy, Gtot (Htot - T*S):      -1.166215 hartrees


  T =   323.15 K
   
              U         Cv          S          H          G        ln(Q)
          ---------  ---------  ---------  ---------  ---------  ---------
  trans.      0.963      2.981     28.480      1.605     -7.598   11.83184
    rot.      0.642      1.987      3.250      0.642     -0.408    0.63566
    vib.      0.000      0.000      0.000      0.000      0.000    0.00000
   elec.      0.000      0.000      0.000      0.000      0.000    0.00000
   total      1.605      4.968     31.731      2.248     -8.006   12.46750
   
  Total internal energy, Utot (SCFE + ZPE + U):      -1.152151 hartrees
              Total enthalpy, Htot (Utot + pV):      -1.151128 hartrees
    Total Gibbs free energy, Gtot (Htot - T*S):      -1.167468 hartrees


  T =   348.15 K
   
              U         Cv          S          H          G        ln(Q)
          ---------  ---------  ---------  ---------  ---------  ---------
  trans.      1.038      2.981     28.851      1.730     -8.315   12.01813
    rot.      0.692      1.987      3.398      0.692     -0.491    0.71018
    vib.      0.000      0.000      0.000      0.000      0.000    0.00000
   elec.      0.000      0.000      0.000      0.000      0.000    0.00000
   total      1.730      4.968     32.249      2.421     -8.806   12.72831
   
  Total internal energy, Utot (SCFE + ZPE + U):      -1.151953 hartrees
              Total enthalpy, Htot (Utot + pV):      -1.150851 hartrees
    Total Gibbs free energy, Gtot (Htot - T*S):      -1.168743 hartrees


  T =   373.15 K
   
              U         Cv          S          H          G        ln(Q)
          ---------  ---------  ---------  ---------  ---------  ---------
  trans.      1.112      2.981     29.195      1.854     -9.040   12.19150
    rot.      0.742      1.987      3.536      0.742     -0.578    0.77952
    vib.      0.000      0.000      0.000      0.000      0.000    0.00000
   elec.      0.000      0.000      0.000      0.000      0.000    0.00000
   total      1.854      4.968     32.731      2.595     -9.618   12.97102
   
  Total internal energy, Utot (SCFE + ZPE + U):      -1.151755 hartrees
              Total enthalpy, Htot (Utot + pV):      -1.150574 hartrees
    Total Gibbs free energy, Gtot (Htot - T*S):      -1.170037 hartrees


  T =   398.15 K
   
              U         Cv          S          H          G        ln(Q)
          ---------  ---------  ---------  ---------  ---------  ---------
  trans.      1.187      2.981     29.517      1.978     -9.774   12.35362
    rot.      0.791      1.987      3.665      0.791     -0.668    0.84437
    vib.      0.000      0.000      0.000      0.000      0.000    0.00000
   elec.      0.000      0.000      0.000      0.000      0.000    0.00000
   total      1.978      4.968     33.182      2.769    -10.442   13.19799
   
  Total internal energy, Utot (SCFE + ZPE + U):      -1.151557 hartrees
              Total enthalpy, Htot (Utot + pV):      -1.150296 hartrees
    Total Gibbs free energy, Gtot (Htot - T*S):      -1.171350 hartrees


  T =   423.15 K
   
              U         Cv          S          H          G        ln(Q)
          ---------  ---------  ---------  ---------  ---------  ---------
  trans.      1.261      2.981     29.820      2.102    -10.516   12.50586
    rot.      0.841      1.987      3.786      0.841     -0.761    0.90527
    vib.      0.000      0.000      0.000      0.000      0.000    0.00000
   elec.      0.000      0.000      0.000      0.000      0.000    0.00000
   total      2.102      4.968     33.606      2.943    -11.277   13.41113
   
  Total internal energy, Utot (SCFE + ZPE + U):      -1.151359 hartrees
              Total enthalpy, Htot (Utot + pV):      -1.150019 hartrees
    Total Gibbs free energy, Gtot (Htot - T*S):      -1.172681 hartrees


  T =   448.15 K
   
              U         Cv          S          H          G        ln(Q)
          ---------  ---------  ---------  ---------  ---------  ---------
  trans.      1.336      2.981     30.105      2.226    -11.265   12.64936
    rot.      0.891      1.987      3.900      0.891     -0.857    0.96267
    vib.      0.000      0.000      0.000      0.000      0.000    0.00000
   elec.      0.000      0.000      0.000      0.000      0.000    0.00000
   total      2.226      4.968     34.005      3.117    -12.122   13.61204
   
  Total internal energy, Utot (SCFE + ZPE + U):      -1.151161 hartrees
              Total enthalpy, Htot (Utot + pV):      -1.149742 hartrees
    Total Gibbs free energy, Gtot (Htot - T*S):      -1.174028 hartrees


  T =   473.15 K
   
              U         Cv          S          H          G        ln(Q)
          ---------  ---------  ---------  ---------  ---------  ---------
  trans.      1.410      2.981     30.375      2.351    -12.021   12.78508
    rot.      0.940      1.987      4.008      0.940     -0.956    1.01696
    vib.      0.000      0.001      0.000      0.000      0.000    0.00000
   elec.      0.000      0.000      0.000      0.000      0.000    0.00000
   total      2.351      4.969     34.383      3.291    -12.977   13.80203
   
  Total internal energy, Utot (SCFE + ZPE + U):      -1.150964 hartrees
              Total enthalpy, Htot (Utot + pV):      -1.149465 hartrees
    Total Gibbs free energy, Gtot (Htot - T*S):      -1.175390 hartrees


  T =   498.15 K
   
              U         Cv          S          H          G        ln(Q)
          ---------  ---------  ---------  ---------  ---------  ---------
  trans.      1.485      2.981     30.630      2.475    -12.784   12.91380
    rot.      0.990      1.987      4.110      0.990     -1.058    1.06844
    vib.      0.000      0.001      0.000      0.000      0.000    0.00000
   elec.      0.000      0.000      0.000      0.000      0.000    0.00000
   total      2.475      4.969     34.741      3.465    -13.841   13.98225
   
  Total internal energy, Utot (SCFE + ZPE + U):      -1.150766 hartrees
              Total enthalpy, Htot (Utot + pV):      -1.149188 hartrees
    Total Gibbs free energy, Gtot (Htot - T*S):      -1.176767 hartrees


  T =   523.15 K
   
              U         Cv          S          H          G        ln(Q)
          ---------  ---------  ---------  ---------  ---------  ---------
  trans.      1.559      2.981     30.874      2.599    -13.553   13.03622
    rot.      1.040      1.987      4.208      1.040     -1.162    1.11741
    vib.      0.000      0.002      0.000      0.000      0.000    0.00001
   elec.      0.000      0.000      0.000      0.000      0.000    0.00000
   total      2.599      4.970     35.082      3.639    -14.714   14.15363
   
  Total internal energy, Utot (SCFE + ZPE + U):      -1.150568 hartrees
              Total enthalpy, Htot (Utot + pV):      -1.148911 hartrees
    Total Gibbs free energy, Gtot (Htot - T*S):      -1.178158 hartrees


  T =   548.15 K
   
              U         Cv          S          H          G        ln(Q)
          ---------  ---------  ---------  ---------  ---------  ---------
  trans.      1.634      2.981     31.106      2.723    -14.327   13.15292
    rot.      1.089      1.987      4.300      1.089     -1.268    1.16409
    vib.      0.000      0.003      0.000      0.000      0.000    0.00001
   elec.      0.000      0.000      0.000      0.000      0.000    0.00000
   total      2.723      4.971     35.406      3.813    -15.595   14.31702
   
  Total internal energy, Utot (SCFE + ZPE + U):      -1.150370 hartrees
              Total enthalpy, Htot (Utot + pV):      -1.148634 hartrees
    Total Gibbs free energy, Gtot (Htot - T*S):      -1.179562 hartrees


  T =   573.15 K
   
              U         Cv          S          H          G        ln(Q)
          ---------  ---------  ---------  ---------  ---------  ---------
  trans.      1.708      2.981     31.327      2.847    -15.108   13.26441
    rot.      1.139      1.987      4.389      1.139     -1.377    1.20869
    vib.      0.000      0.004      0.000      0.000      0.000    0.00002
   elec.      0.000      0.000      0.000      0.000      0.000    0.00000
   total      2.848      4.972     35.717      3.987    -16.484   14.47312
   
  Total internal energy, Utot (SCFE + ZPE + U):      -1.150172 hartrees
              Total enthalpy, Htot (Utot + pV):      -1.148356 hartrees
    Total Gibbs free energy, Gtot (Htot - T*S):      -1.180979 hartrees


  T =   598.15 K
   
              U         Cv          S          H          G        ln(Q)
          ---------  ---------  ---------  ---------  ---------  ---------
  trans.      1.783      2.981     31.539      2.972    -15.894   13.37115
    rot.      1.189      1.987      4.474      1.189     -1.487    1.25139
    vib.      0.000      0.006      0.001      0.000      0.000    0.00003
   elec.      0.000      0.000      0.000      0.000      0.000    0.00000
   total      2.972      4.974     36.014      4.161    -17.381   14.62256
   
  Total internal energy, Utot (SCFE + ZPE + U):      -1.149973 hartrees
              Total enthalpy, Htot (Utot + pV):      -1.148079 hartrees
    Total Gibbs free energy, Gtot (Htot - T*S):      -1.182408 hartrees


  T =   623.15 K
   
              U         Cv          S          H          G        ln(Q)
          ---------  ---------  ---------  ---------  ---------  ---------
  trans.      1.857      2.981     31.743      3.096    -16.685   13.47351
    rot.      1.238      1.987      4.555      1.238     -1.600    1.29233
    vib.      0.001      0.008      0.001      0.001      0.000    0.00004
   elec.      0.000      0.000      0.000      0.000      0.000    0.00000
   total      3.096      4.976     36.299      4.335    -18.285   14.76589
   
  Total internal energy, Utot (SCFE + ZPE + U):      -1.149775 hartrees
              Total enthalpy, Htot (Utot + pV):      -1.147802 hartrees
    Total Gibbs free energy, Gtot (Htot - T*S):      -1.183849 hartrees


  T =   648.15 K
   
              U         Cv          S          H          G        ln(Q)
          ---------  ---------  ---------  ---------  ---------  ---------
  trans.      1.932      2.981     31.938      3.220    -17.481   13.57185
    rot.      1.288      1.987      4.634      1.288     -1.715    1.33167
    vib.      0.001      0.011      0.001      0.001      0.000    0.00006
   elec.      0.000      0.000      0.000      0.000      0.000    0.00000
   total      3.221      4.979     36.573      4.509    -19.196   14.90358
   
  Total internal energy, Utot (SCFE + ZPE + U):      -1.149577 hartrees
              Total enthalpy, Htot (Utot + pV):      -1.147524 hartrees
    Total Gibbs free energy, Gtot (Htot - T*S):      -1.185300 hartrees


  T =   673.15 K
   
              U         Cv          S          H          G        ln(Q)
          ---------  ---------  ---------  ---------  ---------  ---------
  trans.      2.007      2.981     32.126      3.344    -18.281   13.66647
    rot.      1.338      1.987      4.709      1.338     -1.832    1.36951
    vib.      0.001      0.015      0.002      0.001      0.000    0.00009
   elec.      0.000      0.000      0.000      0.000      0.000    0.00000
   total      3.345      4.983     36.837      4.683    -20.114   15.03606
   
  Total internal energy, Utot (SCFE + ZPE + U):      -1.149378 hartrees
              Total enthalpy, Htot (Utot + pV):      -1.147247 hartrees
    Total Gibbs free energy, Gtot (Htot - T*S):      -1.186763 hartrees


  T =   698.15 K
   
              U         Cv          S          H          G        ln(Q)
          ---------  ---------  ---------  ---------  ---------  ---------
  trans.      2.081      2.981     32.307      3.468    -19.087   13.75763
    rot.      1.387      1.987      4.781      1.387     -1.951    1.40598
    vib.      0.002      0.020      0.002      0.002      0.000    0.00012
   elec.      0.000      0.000      0.000      0.000      0.000    0.00000
   total      3.470      4.988     37.091      4.857    -21.038   15.16373
   
  Total internal energy, Utot (SCFE + ZPE + U):      -1.149180 hartrees
              Total enthalpy, Htot (Utot + pV):      -1.146969 hartrees
    Total Gibbs free energy, Gtot (Htot - T*S):      -1.188235 hartrees


  T =   723.15 K
   
              U         Cv          S          H          G        ln(Q)
          ---------  ---------  ---------  ---------  ---------  ---------
  trans.      2.156      2.981     32.482      3.593    -19.897   13.84559
    rot.      1.437      1.987      4.851      1.437     -2.071    1.44116
    vib.      0.002      0.025      0.003      0.002      0.000    0.00017
   elec.      0.000      0.000      0.000      0.000      0.000    0.00000
   total      3.595      4.993     37.336      5.032    -21.968   15.28691
   
  Total internal energy, Utot (SCFE + ZPE + U):      -1.148981 hartrees
              Total enthalpy, Htot (Utot + pV):      -1.146691 hartrees
    Total Gibbs free energy, Gtot (Htot - T*S):      -1.189718 hartrees


  T =   748.15 K
   
              U         Cv          S          H          G        ln(Q)
          ---------  ---------  ---------  ---------  ---------  ---------
  trans.      2.230      2.981     32.651      3.717    -20.711   13.93055
    rot.      1.487      1.987      4.919      1.487     -2.193    1.47515
    vib.      0.003      0.031      0.004      0.003      0.000    0.00022
   elec.      0.000      0.000      0.000      0.000      0.000    0.00000
   total      3.720      4.999     37.574      5.206    -22.904   15.40592
   
  Total internal energy, Utot (SCFE + ZPE + U):      -1.148782 hartrees
              Total enthalpy, Htot (Utot + pV):      -1.146413 hartrees
    Total Gibbs free energy, Gtot (Htot - T*S):      -1.191210 hartrees


  T =   773.15 K
   
              U         Cv          S          H          G        ln(Q)
          ---------  ---------  ---------  ---------  ---------  ---------
  trans.      2.305      2.981     32.814      3.841    -21.529   14.01273
    rot.      1.536      1.987      4.984      1.536     -2.317    1.50802
    vib.      0.004      0.039      0.005      0.004      0.000    0.00029
   elec.      0.000      0.000      0.000      0.000      0.000    0.00000
   total      3.845      5.007     37.803      5.381    -23.847   15.52104
   
  Total internal energy, Utot (SCFE + ZPE + U):      -1.148583 hartrees
              Total enthalpy, Htot (Utot + pV):      -1.146134 hartrees
    Total Gibbs free energy, Gtot (Htot - T*S):      -1.192712 hartrees


  T =   798.15 K
   
              U         Cv          S          H          G        ln(Q)
          ---------  ---------  ---------  ---------  ---------  ---------
  trans.      2.379      2.981     32.972      3.965    -22.352   14.09229
    rot.      1.586      1.987      5.047      1.586     -2.442    1.53984
    vib.      0.005      0.047      0.007      0.005     -0.001    0.00038
   elec.      0.000      0.000      0.000      0.000      0.000    0.00000
   total      3.970      5.015     38.026      5.556    -24.795   15.63251
   
  Total internal energy, Utot (SCFE + ZPE + U):      -1.148383 hartrees
              Total enthalpy, Htot (Utot + pV):      -1.145855 hartrees
    Total Gibbs free energy, Gtot (Htot - T*S):      -1.194222 hartrees


  T =   823.15 K
   
              U         Cv          S          H          G        ln(Q)
          ---------  ---------  ---------  ---------  ---------  ---------
  trans.      2.454      2.981     33.126      4.089    -23.178   14.16939
    rot.      1.636      1.987      5.108      1.636     -2.569    1.57068
    vib.      0.006      0.056      0.008      0.006     -0.001    0.00048
   elec.      0.000      0.000      0.000      0.000      0.000    0.00000
   total      4.095      5.024     38.242      5.731    -25.748   15.74055
   
  Total internal energy, Utot (SCFE + ZPE + U):      -1.148183 hartrees
              Total enthalpy, Htot (Utot + pV):      -1.145576 hartrees
    Total Gibbs free energy, Gtot (Htot - T*S):      -1.195741 hartrees


  T =   848.15 K
   
              U         Cv          S          H          G        ln(Q)
          ---------  ---------  ---------  ---------  ---------  ---------
  trans.      2.528      2.981     33.274      4.214    -24.008   14.24419
    rot.      1.685      1.987      5.168      1.685     -2.698    1.60060
    vib.      0.008      0.066      0.010      0.008     -0.001    0.00060
   elec.      0.000      0.000      0.000      0.000      0.000    0.00000
   total      4.221      5.034     38.452      5.907    -26.707   15.84539
   
  Total internal energy, Utot (SCFE + ZPE + U):      -1.147983 hartrees
              Total enthalpy, Htot (Utot + pV):      -1.145297 hartrees
    Total Gibbs free energy, Gtot (Htot - T*S):      -1.197269 hartrees


  T =   873.15 K
   
              U         Cv          S          H          G        ln(Q)
          ---------  ---------  ---------  ---------  ---------  ---------
  trans.      2.603      2.981     33.418      4.338    -24.842   14.31681
    rot.      1.735      1.987      5.226      1.735     -2.828    1.62965
    vib.      0.009      0.077      0.012      0.009     -0.001    0.00075
   elec.      0.000      0.000      0.000      0.000      0.000    0.00000
   total      4.347      5.045     38.656      6.082    -27.670   15.94721
   
  Total internal energy, Utot (SCFE + ZPE + U):      -1.147782 hartrees
              Total enthalpy, Htot (Utot + pV):      -1.145017 hartrees
    Total Gibbs free energy, Gtot (Htot - T*S):      -1.198805 hartrees


  T =   898.15 K
   
              U         Cv          S          H          G        ln(Q)
          ---------  ---------  ---------  ---------  ---------  ---------
  trans.      2.677      2.981     33.559      4.462    -25.679   14.38739
    rot.      1.785      1.987      5.282      1.785     -2.959    1.65788
    vib.      0.011      0.089      0.015      0.011     -0.002    0.00091
   elec.      0.000      0.000      0.000      0.000      0.000    0.00000
   total      4.473      5.057     38.855      6.258    -28.639   16.04618
   
  Total internal energy, Utot (SCFE + ZPE + U):      -1.147581 hartrees
              Total enthalpy, Htot (Utot + pV):      -1.144736 hartrees
    Total Gibbs free energy, Gtot (Htot - T*S):      -1.200349 hartrees
   
  Peak memory usage:    320 Mb
  
  end of program freq
   
 Time(freq)  user:        0.0  user+sys:        0.0  wallclock:        0.1

 Total cpu seconds     user:       0.000   user+sys:       0.000
  
 Total elapsed time:    7 seconds

Job H2.01 completed on node-3-13.local at Fri Apr 13 22:39:00 2018
