Job H2O.01 started on node-3-8.local at Mon Feb 11 16:06:40 2019
jobid: node-3-8-0-5c620e10

  +--------------------------------------------------------------------+
  |  Jaguar version 8.8, release  11                                   |
  |                                                                    |
  |  Copyright Schrodinger, Inc.                                       |
  |  All Rights Reserved.                                              |
  |                                                                    |
  |  The following have contributed to Jaguar (listed alphabetically): |
  |  Mike Beachy, Art Bochevarov, Dale Braden, Yixiang Cao,            |
  |  Chris Cortis, Rich Friesner, Bill Goddard, Hod Greeley,           |
  |  Tom Hughes, Jean-Marc Langlois, Daniel Mainz, Rob Murphy,         |
  |  Dean Philipp, Tom Pollard, Murco Ringnalda.                       |
  |                                                                    |
  |  Use of this program should be acknowledged in publications as:    |
  |                                                                    |
  |  Jaguar, version 8.8, Schrodinger, Inc., New York, NY, 2015.       |
  |                                                                    |
  |  A. D. Bochevarov, E. Harder, T. F. Hughes, J. R. Greenwood,       |
  |  D. A. Braden, D. M. Philipp, D. Rinaldo, M. D. Halls,             |
  |  J. Zhang, R. A. Friesner, "Jaguar: A High-Performance Quantum     |
  |  Chemistry Software Program with Strengths in Life and Materials   |
  |  Sciences", Int. J. Quantum Chem., 2013, 113(18), 2110-2142.       |
  +--------------------------------------------------------------------+
  
  start of program pre
  
  Job name: H2O.01
  Executables used: /project/exec/schrodinger_2015/jaguar-v88011/bin/Linux-x86_64
  Temporary files : /temp1/jqian/H2O.01
  Maestro file (input):  H2O.01.mae
  Maestro file (output): H2O.02.mae
  
  
  basis set:             lacvp**                         
  net molecular charge:    0
  multiplicity:            1
  
  number of basis functions....           24
  
 Input geometry:
                                   angstroms
  atom               x                 y                 z
  O1            0.0000000000      0.0000000000      0.1192620000 
  H2            0.0000000000      0.7632390000     -0.4770420000 
  H3            0.0000000000     -0.7632390000     -0.4770420000 
   
  principal moments of inertia:
        amu*angstrom^2:        0.63651        1.17418        1.81069
                g*cm^2: 1.05694946E-40 1.94977855E-40 3.00672801E-40
   
  rotational constants:
               cm^(-1):     26.48447183     14.35688596      9.31003674
                   GHz:    793.98449084    430.40861303    279.10787997
   
  Molecular weight:      18.01 amu
   
  Stoichiometry: H2O
  Molecular Point Group: C2v     
	Molecule translated to center of mass 
	Molecule reoriented along symmetry axes
  Point Group used: C2v
  
 
Number of optimization coordinates:     3
Number of independent coordinates:      3
Number of non-redundant coordinates:    3
Number of frozen coordinates:           0
Number of harmonic constraints:         0
 
Number of geometric degrees of freedom:     3
Maximum geometric degrees of freedom:       3
 " " " " " excluding dummy atoms:           3
 
  
 Symmetrized geometry:
                                   angstroms
  atom               x                 y                 z
  O1            0.0000000000      0.0000000000     -0.0667352866 
  H2            0.0000000000      0.7632390000      0.5295687134 
  H3            0.0000000000     -0.7632390000      0.5295687134 
   
  nuclear repulsion energy.......       9.088321550 hartrees
 
 Non-default options chosen:
   SCF calculation type: DFT(pbe)                    
   DFT=PBE(X+LC)+PW91 (PBE)
   Geometry will be optimized in redundant internal coordinates
   Vibrational frequencies and related properties will be computed
      from analytic second derivatives
   IR intensities will be computed
   Thermochemical data will be computed for  25 temperatures starting at
       298.15 K, at intervals of   25.00 K
   Highest accuracy cutoffs used in SCF
   Maximum number of geometry steps:   10
   Mulliken populations computed by atom
  
 Temporary integer options set:
     73=  2
  
  Peak memory usage:    511 Mb
  
  end of program pre
   
 Time(pre)  user:        0.3  user+sys:        0.3  wallclock:        0.5
  
  start of program onee
  
  smallest eigenvalue of S:    4.405E-02
  number of canonical orbitals.....           24
  Peak memory usage:    664 Mb
  
  end of program onee
   
 Time(onee)  user:        0.2  user+sys:        0.2  wallclock:        0.4
  
  start of program hfig
  
  initial wavefunction generated automatically from atomic wavefunctions
 
  Irreducible     Total no   No of occupied orbitals 
  representation  orbitals   Shell_1  Shell_2    ...
  A1                11          3
  A2                 2          0
  B1                 4          1
  B2                 7          1
  ------------------------
  Orbital occupation/shell    1.000
 
  Peak memory usage:    601 Mb
  
  end of program hfig
   
 Time(hfig)  user:        0.2  user+sys:        0.2  wallclock:        0.3
  
  start of program probe
  
  Peak memory usage:    601 Mb
  
  end of program probe
   
 Time(probe)  user:        0.2  user+sys:        0.2  wallclock:        0.3
  
  start of program grid
  
  
   grid     grid set  grid #  grid sym
  ------    --------  ------  --------
  coarse        0        0        1
  medium        2        1        4
  fine          0        0        1
  ultrafine     4        2        4
  charge        0        0        1
  gradient      4        2        4
  density       0        0        1
  DFT-fine    -11        3        4
  DFT-med.    -10        4        4
  DFT-grad    -12        5        4
  DFT-der2     -8        6        4
  DFT-cphf     -9        7        4
  LMP2-enrg     4        2        4
  LMP2-grad     2        1        4
  DFT-cphf2   -15        8        4
  PBF-dens      0        0        1
  plotting      0        0        1
  Rel-grad    -17        0        1
  
   
  number of gridpoints: 
     atom        O1       H2       H3    total
  grid # 1       40       69        0      109
  grid # 2      143      264        0      407
  grid # 3     1395     2430        0     3825
  grid # 4      480      756        0     1236
  grid # 5     1733     3001        0     4734
  grid # 6     6703     7413        0    14116
  grid # 7      271      464        0      735
  grid # 8      151      245        0      396
   
  Peak memory usage:    632 Mb
  
  end of program grid
   
 Time(grid)  user:        0.2  user+sys:        0.2  wallclock:        0.4
  
  start of program rwr
  
  Peak memory usage:    512 Mb
  
  end of program rwr
   
 Time(rwr)  user:        0.3  user+sys:        0.3  wallclock:        0.4
  
  start of program scf
  
 number of electrons..........         10
 number of alpha electrons....          5
 number of beta electrons.....          5
 number of orbitals, total....         24
 number of doubly-occ'd orbs..          5
 number of open shell orbs....          0
 number of occupied orbitals..          5
 number of virtual orbitals...         19
 number of hamiltonians.......          1
 number of shells.............          1
 SCF type: DFT=PBE(X+LC)+PW91 (PBE)
  
       i  u  d  i  g                   
       t  p  i  c  r                                 RMS    maximum
       e  d  i  u  i                       energy  density   DIIS  
       r  t  s  t  d       total energy    change  change    error 
  
etot    1  N  N  1  U     -76.08134808061           9.2E-03  2.4E-01
etot    2  N  Y  1  U     -76.29518652624  2.1E-01  8.6E-03  8.0E-02
etot    3  N  Y  1  U     -76.32358691099  2.8E-02  3.6E-03  3.9E-02
etot    4  N  Y  1  U     -76.33014051660  6.6E-03  1.2E-03  1.8E-02
etot    5  N  Y  1  U     -76.33146979385  1.3E-03  5.0E-05  8.3E-04
etot    6  N  Y  1  U     -76.33147229739  2.5E-06  1.2E-06  1.1E-05
etot    7  N  N  1  U     -76.33147229846  1.1E-09  0.0E+00  0.0E+00
  
  
 Energy components, in hartrees:
   (A)  Nuclear repulsion............       9.08832154990
   (E)  Total one-electron terms.....    -122.94154433013
   (I)  Total two-electron terms.....      37.52175048176
   (J)    Coulomb....................      46.78517671908
   (K)    Exchange+Correlation.......      -9.26342623732
   (L)  Electronic energy............     -85.41979384837  (E+I)
   (N)  Total energy.................     -76.33147229846  (A+L)
  
 SCFE: SCF energy: DFT(pbe)       -76.33147229846 hartrees   iterations:   7
  
 
 HOMO energy:    -0.22681
 LUMO energy:     0.04602
 
  Orbital energies (hartrees)/symmetry label: 
   -18.74980 A1         -0.90217 A1         -0.45664 B2         -0.30828 A1     
    -0.22681 B1          0.04602 A1          0.12665 B2          0.71183 B2     
     0.75439 A1          0.84482 B1          0.88384 A1          0.96787 B2     
     1.27839 A1          1.46416 A2          1.48950 A1     
 
  Peak memory usage:    809 Mb
  
  end of program scf
   
 Time(scf)  user:        1.0  user+sys:        1.0  wallclock:        1.5
  
  start of program der1a
  
  Peak memory usage:    666 Mb
  
  end of program der1a
   
 Time(der1a)  user:        0.2  user+sys:        0.2  wallclock:        0.4
  
  start of program rwr
  
  Peak memory usage:    515 Mb
  
  end of program rwr
   
 Time(rwr)  user:        0.2  user+sys:        0.2  wallclock:        0.4
  
  start of program der1b
  
   
  forces (hartrees/bohr) : total     
   
 atom  label           x              y              z
 ---- --------   -------------  -------------  -------------
    1 O1          0.000000E+00   0.000000E+00  -6.214619E-03
    2 H2          0.000000E+00   1.833757E-03   3.056950E-03
    3 H3          0.000000E+00  -1.833757E-03   3.056950E-03
 -------------   -------------  -------------  -------------
     total        0.000000E+00   0.000000E+00  -1.007192E-04
   
  Peak memory usage:    743 Mb
  
  end of program der1b
   
 Time(der1b)  user:        0.3  user+sys:        0.3  wallclock:        0.8
  
  start of program geopt
  
  geometry optimization step  1
  energy:             -76.33147229846 hartrees
  
  gradient maximum:        3.3477E-03 .  (  4.5000E-04 )
  gradient rms:            3.0622E-03 .  (  3.0000E-04 )
  displacement maximum:    1.4937E-02 .  (  1.8000E-03 )
  displacement rms:        1.0079E-02 .  (  1.2000E-03 )
  
  predicted energy change:  -3.9257E-05
  step size:     0.01746
  trust radius:  0.30000
  
  molecular structure not yet converged...
  
  center of mass moved by:
     x:     0.0000E+00     y:     0.0000E+00     z:    -8.1619E-03
  
  new geometry: 
                                   angstroms
  atom               x                 y                 z
  O1            0.0000000000      0.0000000000     -0.0676065038 
  H2            0.0000000000      0.7614126608      0.5364821383 
  H3            0.0000000000     -0.7614126608      0.5364821383 
   
  nuclear repulsion energy.......       9.058747812 hartrees
  -------------------------------------------------
 /  end of geometry optimization iteration   1   /
 -------------------------------------------------
   
  Peak memory usage:    509 Mb
  
  end of program geopt
   
 Time(geopt)  user:        0.2  user+sys:        0.2  wallclock:        0.3
  
  start of program onee
  
  smallest eigenvalue of S:    4.415E-02
  number of canonical orbitals.....           24
  Peak memory usage:    664 Mb
  
  end of program onee
   
 Time(onee)  user:        0.2  user+sys:        0.2  wallclock:        0.4
  
  start of program probe
  
  Peak memory usage:    601 Mb
  
  end of program probe
   
 Time(probe)  user:        0.2  user+sys:        0.2  wallclock:        0.3
  
  start of program grid
  
  
   grid     grid set  grid #  grid sym
  ------    --------  ------  --------
  coarse        0        0        1
  medium        2        1        4
  fine          0        0        1
  ultrafine     4        2        4
  charge        0        0        1
  gradient      4        2        4
  density       0        0        1
  DFT-fine    -11        3        4
  DFT-med.    -10        4        4
  DFT-grad    -12        5        4
  DFT-der2     -8        6        4
  DFT-cphf     -9        7        4
  LMP2-enrg     4        2        4
  LMP2-grad     2        1        4
  DFT-cphf2   -15        8        4
  PBF-dens      0        0        1
  plotting      0        0        1
  Rel-grad    -17        0        1
  
   
  number of gridpoints: 
     atom        O1       H2       H3    total
  grid # 1       40       69        0      109
  grid # 2      143      265        0      408
  grid # 3     1395     2430        0     3825
  grid # 4      480      756        0     1236
  grid # 5     1733     3001        0     4734
  grid # 6     6703     7413        0    14116
  grid # 7      271      464        0      735
  grid # 8      151      245        0      396
   
  Peak memory usage:    632 Mb
  
  end of program grid
   
 Time(grid)  user:        0.2  user+sys:        0.2  wallclock:        0.4
  
  start of program rwr
  
  Peak memory usage:    512 Mb
  
  end of program rwr
   
 Time(rwr)  user:        0.3  user+sys:        0.3  wallclock:        0.7
  
  start of program scf
  
  
       i  u  d  i  g                   
       t  p  i  c  r                                 RMS    maximum
       e  d  i  u  i                       energy  density   DIIS  
       r  t  s  t  d       total energy    change  change    error 
  
etot    1  N  N  1  U     -76.33150411415           2.8E-04  1.3E-03
etot    2  N  Y  1  U     -76.33151635059  1.2E-05  1.1E-04  9.7E-04
etot    3  N  Y  1  U     -76.33151848518  2.1E-06  4.5E-05  7.4E-04
etot    4  N  Y  1  U     -76.33152104142  2.6E-06  1.2E-06  2.5E-05
etot    5  N  N  1  U     -76.33152104362  2.2E-09  0.0E+00  0.0E+00
  
  
 Energy components, in hartrees:
   (A)  Nuclear repulsion............       9.05874781241
   (E)  Total one-electron terms.....    -122.88571166816
   (I)  Total two-electron terms.....      37.49544281213
   (J)    Coulomb....................      46.75572363716
   (K)    Exchange+Correlation.......      -9.26028082503
   (L)  Electronic energy............     -85.39026885603  (E+I)
   (N)  Total energy.................     -76.33152104362  (A+L)
  
 SCFE: SCF energy: DFT(pbe)       -76.33152104362 hartrees   iterations:   5
  
 
 HOMO energy:    -0.22682
 LUMO energy:     0.04486
 
  Orbital energies (hartrees)/symmetry label: 
   -18.75075 A1         -0.90155 A1         -0.45412 B2         -0.30992 A1     
    -0.22682 B1          0.04486 A1          0.12505 B2          0.70814 B2     
     0.75364 A1          0.84462 B1          0.88601 A1          0.96724 B2     
     1.27915 A1          1.46571 A2          1.48360 A1     
 
  Peak memory usage:    809 Mb
  
  end of program scf
   
 Time(scf)  user:        0.8  user+sys:        0.8  wallclock:        1.4
  
  start of program der1a
  
  Peak memory usage:    666 Mb
  
  end of program der1a
   
 Time(der1a)  user:        0.2  user+sys:        0.2  wallclock:        0.3
  
  start of program rwr
  
  Peak memory usage:    515 Mb
  
  end of program rwr
   
 Time(rwr)  user:        0.2  user+sys:        0.2  wallclock:        0.3
  
  start of program der1b
  
   
  forces (hartrees/bohr) : total     
   
 atom  label           x              y              z
 ---- --------   -------------  -------------  -------------
    1 O1          0.000000E+00   0.000000E+00  -1.142322E-03
    2 H2          0.000000E+00   3.310188E-04   5.048353E-04
    3 H3          0.000000E+00  -3.310188E-04   5.048353E-04
 -------------   -------------  -------------  -------------
     total        0.000000E+00   0.000000E+00  -1.326515E-04
   
  Peak memory usage:    743 Mb
  
  end of program der1b
   
 Time(der1b)  user:        0.3  user+sys:        0.3  wallclock:        0.4
  
  start of program geopt
  
  geometry optimization step  2
  energy:             -76.33152104362 hartrees
  
  energy change:          -4.8745E-05 *  (  5.0000E-05 )
  gradient maximum:        6.0057E-04 .  (  4.5000E-04 )
  gradient rms:            5.4504E-04 .  (  3.0000E-04 )
  displacement maximum:    3.1248E-03 .  (  1.8000E-03 )
  displacement rms:        2.1320E-03 .  (  1.2000E-03 )
  
  predicted energy change:  -1.4796E-06
  step size:     0.00369
  trust radius:  0.30000
  
  molecular structure not yet converged...
  
  center of mass moved by:
     x:     0.0000E+00     y:     0.0000E+00     z:    -1.7273E-03
  
  new geometry: 
                                   angstroms
  atom               x                 y                 z
  O1            0.0000000000      0.0000000000     -0.0677908774 
  H2            0.0000000000      0.7610440211      0.5379452093 
  H3            0.0000000000     -0.7610440211      0.5379452093 
   
  nuclear repulsion energy.......       9.052321619 hartrees
  -------------------------------------------------
 /  end of geometry optimization iteration   2   /
 -------------------------------------------------
   
  Peak memory usage:    509 Mb
  
  end of program geopt
   
 Time(geopt)  user:        0.2  user+sys:        0.2  wallclock:        0.3
  
  start of program onee
  
  smallest eigenvalue of S:    4.418E-02
  number of canonical orbitals.....           24
  Peak memory usage:    664 Mb
  
  end of program onee
   
 Time(onee)  user:        0.2  user+sys:        0.2  wallclock:        0.3
  
  start of program probe
  
  Peak memory usage:    601 Mb
  
  end of program probe
   
 Time(probe)  user:        0.2  user+sys:        0.2  wallclock:        0.2
  
  start of program grid
  
  
   grid     grid set  grid #  grid sym
  ------    --------  ------  --------
  coarse        0        0        1
  medium        2        1        4
  fine          0        0        1
  ultrafine     4        2        4
  charge        0        0        1
  gradient      4        2        4
  density       0        0        1
  DFT-fine    -11        3        4
  DFT-med.    -10        4        4
  DFT-grad    -12        5        4
  DFT-der2     -8        6        4
  DFT-cphf     -9        7        4
  LMP2-enrg     4        2        4
  LMP2-grad     2        1        4
  DFT-cphf2   -15        8        4
  PBF-dens      0        0        1
  plotting      0        0        1
  Rel-grad    -17        0        1
  
   
  number of gridpoints: 
     atom        O1       H2       H3    total
  grid # 1       40       69        0      109
  grid # 2      143      265        0      408
  grid # 3     1395     2430        0     3825
  grid # 4      480      756        0     1236
  grid # 5     1733     3001        0     4734
  grid # 6     6703     7413        0    14116
  grid # 7      271      464        0      735
  grid # 8      151      245        0      396
   
  Peak memory usage:    632 Mb
  
  end of program grid
   
 Time(grid)  user:        0.2  user+sys:        0.2  wallclock:        0.9
  
  start of program rwr
  
  Peak memory usage:    512 Mb
  
  end of program rwr
   
 Time(rwr)  user:        0.2  user+sys:        0.2  wallclock:        0.3
  
  start of program scf
  
  
       i  u  d  i  g                   
       t  p  i  c  r                                 RMS    maximum
       e  d  i  u  i                       energy  density   DIIS  
       r  t  s  t  d       total energy    change  change    error 
  
etot    1  N  N  1  U     -76.33152226564           6.0E-05  2.7E-04
etot    2  N  Y  1  U     -76.33152281989  5.5E-07  2.4E-05  2.2E-04
etot    3  N  Y  1  U     -76.33152293160  1.1E-07  9.5E-06  1.6E-04
etot    4  N  Y  1  U     -76.33152304605  1.1E-07  1.1E-07  5.2E-06
etot    5  N  N  1  U     -76.33152304612  6.9E-11  0.0E+00  0.0E+00
  
  
 Energy components, in hartrees:
   (A)  Nuclear repulsion............       9.05232161949
   (E)  Total one-electron terms.....    -122.87356100710
   (I)  Total two-electron terms.....      37.48971634148
   (J)    Coulomb....................      46.74931169137
   (K)    Exchange+Correlation.......      -9.25959534988
   (L)  Electronic energy............     -85.38384466561  (E+I)
   (N)  Total energy.................     -76.33152304612  (A+L)
  
 SCFE: SCF energy: DFT(pbe)       -76.33152304612 hartrees   iterations:   5
  
 
 HOMO energy:    -0.22683
 LUMO energy:     0.04461
 
  Orbital energies (hartrees)/symmetry label: 
   -18.75095 A1         -0.90141 A1         -0.45359 B2         -0.31027 A1     
    -0.22683 B1          0.04461 A1          0.12471 B2          0.70738 B2     
     0.75346 A1          0.84457 B1          0.88646 A1          0.96711 B2     
     1.27932 A1          1.46604 A2          1.48236 A1     
 
  Peak memory usage:    809 Mb
  
  end of program scf
   
 Time(scf)  user:        0.7  user+sys:        0.7  wallclock:        1.1
  
  start of program der1a
  
  Peak memory usage:    666 Mb
  
  end of program der1a
   
 Time(der1a)  user:        0.2  user+sys:        0.2  wallclock:        0.3
  
  start of program rwr
  
  Peak memory usage:    515 Mb
  
  end of program rwr
   
 Time(rwr)  user:        0.2  user+sys:        0.2  wallclock:        0.3
  
  start of program der1b
  
   
  forces (hartrees/bohr) : total     
   
 atom  label           x              y              z
 ---- --------   -------------  -------------  -------------
    1 O1          0.000000E+00   0.000000E+00  -5.565763E-05
    2 H2          0.000000E+00   9.344779E-06  -4.187547E-05
    3 H3          0.000000E+00  -9.344779E-06  -4.187547E-05
 -------------   -------------  -------------  -------------
     total        0.000000E+00   0.000000E+00  -1.394086E-04
   
  Peak memory usage:    743 Mb
  
  end of program der1b
   
 Time(der1b)  user:        0.3  user+sys:        0.3  wallclock:        0.4
  
  start of program geopt
  
  geometry optimization step  3
  energy:             -76.33152304612 hartrees
  
  energy change:          -2.0025E-06 #  (  5.0000E-05 )
  gradient maximum:        1.0172E-05 #  (  4.5000E-04 )
  gradient rms:            8.6349E-06 #  (  3.0000E-04 )
  displacement maximum:    1.6741E-05 #  (  1.8000E-03 )
  displacement rms:        1.6339E-05 #  (  1.2000E-03 )
  
  predicted energy change:  -2.4735E-10
  step size:     0.00003
  trust radius:  0.30000
  
  ********************************************************
  **           Geometry optimization complete           **
  ********************************************************
  
  Checking the geometry optimization convergence pattern ...
  
  best                    worst
  ==0=====1=====2=====3=====4==
    ^                          
  
  Convergence category 0: monotonic convergence.
  Geometry optimization was OK.
  
  center of mass moved by:
     x:     0.0000E+00     y:     0.0000E+00     z:     0.0000E+00
  
  final geometry: 
                                   angstroms
  atom               x                 y                 z
  O1            0.0000000000      0.0000000000     -0.0677908774 
  H2            0.0000000000      0.7610440211      0.5379452093 
  H3            0.0000000000     -0.7610440211      0.5379452093 
   
  principal moments of inertia:
        amu*angstrom^2:        0.65681        1.16744        1.82425
                g*cm^2: 1.09065067E-40 1.93858004E-40 3.02923071E-40
   
  rotational constants:
               cm^(-1):     25.66609909     14.43982073      9.24087694
                   GHz:    769.45029337    432.89493496    277.03452125
   
  nuclear repulsion energy.......       9.052321619 hartrees
  -------------------------------------------------
 /  end of geometry optimization iteration   3   /
 -------------------------------------------------
   
  Peak memory usage:    636 Mb
  
  end of program geopt
   
 Time(geopt)  user:        0.5  user+sys:        0.5  wallclock:        0.9
  
  start of program ch
  
  Atomic charges from Mulliken population analysis: 
   
 Atom       O1           H2           H3      
 Charge   -0.60249      0.30125      0.30125
  
  sum of atomic charges:    -0.000000
   
  Peak memory usage:    673 Mb
  
  end of program ch
   
 Time(ch)  user:        0.5  user+sys:        0.5  wallclock:        1.0
  
  start of program cutabab2
  
  Peak memory usage:    610 Mb
  
  end of program cutabab2
   
 Time(cutabab2)  user:        0.2  user+sys:        0.2  wallclock:        0.3
  
  start of program der2a
  
  Peak memory usage:    666 Mb
  
  end of program der2a
   
 Time(der2a)  user:        0.2  user+sys:        0.2  wallclock:        0.3
  
  start of program grid
  
  
   Turning symmetry off because some of the
   following programs cannot use it.
  
   grid     grid set  grid #  grid sym
  ------    --------  ------  --------
  coarse        0        0        1
  medium        2        1        4
  fine          0        0        1
  ultrafine     4        2        4
  charge        0        0        1
  gradient      4        2        4
  density       0        0        1
  DFT-fine    -11        3        4
  DFT-med.    -10        4        4
  DFT-grad    -12        5        4
  DFT-der2     -8        6        4
  DFT-cphf     -9        7        4
  LMP2-enrg     4        2        4
  LMP2-grad     2        1        4
  DFT-cphf2   -15        8        4
  PBF-dens      0        0        1
  plotting      0        0        1
  Rel-grad    -17        0        1
  
   
  number of gridpoints: 
     atom        O1       H2       H3    total
  grid # 1      111      117      117      345
  grid # 2      412      452      452     1316
  grid # 3     4304     4304     4304    12912
  grid # 4     1192     1192     1192     3576
  grid # 5     5226     5226     5226    15678
  grid # 6    23504    13718    13718    50940
  grid # 7      714      744      744     2202
  grid # 8      360      382      382     1124
   
  Peak memory usage:    632 Mb
  
  end of program grid
   
 Time(grid)  user:        0.2  user+sys:        0.2  wallclock:        0.3
  
  start of program der2b
  
  Peak memory usage:    799 Mb
  
  end of program der2b
   
 Time(der2b)  user:        1.1  user+sys:        1.1  wallclock:        1.3
  
  start of program der2nda
  
 
  Peak memory usage:    664 Mb
  
  end of program der2nda
   
 Time(der2nda)  user:        0.2  user+sys:        0.2  wallclock:        0.2
  
  start of program der2ndb
  
  Peak memory usage:    626 Mb
  
  end of program der2ndb
   
 Time(der2ndb)  user:        3.0  user+sys:        3.0  wallclock:        3.2
  
  start of program rwr
  
  Peak memory usage:    512 Mb
  
  end of program rwr
   
 Time(rwr)  user:        0.2  user+sys:        0.2  wallclock:        0.4
  
  start of program cphfa
  
       1  vectors produced in CPHF
  
     v    i  j  k  i  g
     e    t  c  c  c  r
     c    e  o  o  u  i
     t    r  r  r  t  d       RMS  
  
     1    1  0  0  6  M     9.8E-02
     1    2  0  0  6  M     4.8E-03
     1    3  0  0  6  M     6.1E-04
     1    4  0  0  6  M     3.2E-05
  
  
  Atomic Polar Tensors (au): Total
  =========================
  
  APT for atom O1      
  --------------------------------------
       -0.6918      -0.0000       0.0000
        0.0000      -0.3818      -0.0000
       -0.0000       0.0000      -0.2909
  --------------------------------------
  
  APT for atom H2      
  --------------------------------------
        0.3459       0.0000      -0.0000
        0.0000       0.1909      -0.0967
       -0.0000      -0.1225       0.1454
  --------------------------------------
  
  APT for atom H3      
  --------------------------------------
        0.3459      -0.0000      -0.0000
       -0.0000       0.1909       0.0967
        0.0000       0.1225       0.1454
  --------------------------------------
  
  Peak memory usage:    735 Mb
  
  end of program cphfa
   
 Time(cphfa)  user:        1.1  user+sys:        1.1  wallclock:        1.4
  
  start of program freq
  
   
  harmonic frequencies in cm**-1, reduced masses in amu,
  force constants in mDyne/A, and
  normal modes in cartesian coordinates:
  IR intensities in km/mol
  
  frequencies      1632.34  3702.20  3821.86
  symmetries       A1       A1       B2      
  intensities        63.87     0.27    15.16
  reduc. mass         0.52     0.49     0.52
  force const         0.82     3.95     4.44
    O1       X     0.00000  0.00000  0.00000
    O1       Y     0.00000 -0.00000  0.06692
    O1       Z    -0.06787 -0.04890 -0.00000
    H2       X     0.00000  0.00000  0.00000
    H2       Y    -0.41173  0.57149 -0.53100
    H2       Z     0.53856  0.38801 -0.42264
    H3       X     0.00000  0.00000 -0.00000
    H3       Y     0.41173 -0.57149 -0.53100
    H3       Z     0.53856  0.38801  0.42264
  
  Number of imaginary frequencies:   0
   
  Writing vibrational animation data to H2O.01.vib
  Writing vibrational spectrum data to H2O.01_vib.spm
  
  Thermochemical properties at    1.0000 atm
  
  rotational symmetry number:  2

  rotational temperatures (K):     36.927750     20.775658     13.295546
   
  vibrational temperatures:
       mode:      1        2        3
  temp. (K):  2348.56  5326.63  5498.79
   
   
  Thermodynamic properties calculated assuming an ideal gas

  In the table below, the units for temperature
  are kelvins, the units for U, H, and G are
  kcal/mol and the units for Cv and S are cal/(mol K)

  The zero point energy (ZPE):     13.090 kcal/mol
  is not included in U, H, or G in the table below


  T =   298.15 K
   
              U         Cv          S          H          G        ln(Q)
          ---------  ---------  ---------  ---------  ---------  ---------
  trans.      0.889      2.981     34.608      1.481     -8.837   14.91556
    rot.      0.889      2.981     10.553      0.889     -2.258    3.81053
    vib.      0.002      0.047      0.007      0.002     -0.000    0.00038
   elec.      0.000      0.000      0.000      0.000      0.000    0.00000
   total      1.779      6.008     45.168      2.372    -11.095   18.72647
   
  Total internal energy, Utot (SCFE + ZPE + U):     -76.307828 hartrees
              Total enthalpy, Htot (Utot + pV):     -76.306884 hartrees
    Total Gibbs free energy, Gtot (Htot - T*S):     -76.328345 hartrees


  T =   323.15 K
   
              U         Cv          S          H          G        ln(Q)
          ---------  ---------  ---------  ---------  ---------  ---------
  trans.      0.963      2.981     35.008      1.605     -9.708   15.11686
    rot.      0.963      2.981     10.793      0.963     -2.525    3.93131
    vib.      0.003      0.073      0.011      0.003     -0.000    0.00070
   elec.      0.000      0.000      0.000      0.000      0.000    0.00000
   total      1.930      6.035     45.813      2.572    -12.233   19.04886
   
  Total internal energy, Utot (SCFE + ZPE + U):     -76.307588 hartrees
              Total enthalpy, Htot (Utot + pV):     -76.306565 hartrees
    Total Gibbs free energy, Gtot (Htot - T*S):     -76.330157 hartrees


  T =   348.15 K
   
              U         Cv          S          H          G        ln(Q)
          ---------  ---------  ---------  ---------  ---------  ---------
  trans.      1.038      2.981     35.379      1.730    -10.587   15.30315
    rot.      1.038      2.981     11.015      1.038     -2.797    4.04308
    vib.      0.005      0.107      0.018      0.005     -0.001    0.00118
   elec.      0.000      0.000      0.000      0.000      0.000    0.00000
   total      2.081      6.068     46.412      2.773    -13.385   19.34741
   
  Total internal energy, Utot (SCFE + ZPE + U):     -76.307347 hartrees
              Total enthalpy, Htot (Utot + pV):     -76.306244 hartrees
    Total Gibbs free energy, Gtot (Htot - T*S):     -76.331994 hartrees


  T =   373.15 K
   
              U         Cv          S          H          G        ln(Q)
          ---------  ---------  ---------  ---------  ---------  ---------
  trans.      1.112      2.981     35.723      1.854    -11.476   15.47652
    rot.      1.112      2.981     11.222      1.112     -3.075    4.14710
    vib.      0.009      0.146      0.027      0.009     -0.001    0.00185
   elec.      0.000      0.000      0.000      0.000      0.000    0.00000
   total      2.233      6.108     46.972      2.975    -14.553   19.62547
   
  Total internal energy, Utot (SCFE + ZPE + U):     -76.307104 hartrees
              Total enthalpy, Htot (Utot + pV):     -76.305923 hartrees
    Total Gibbs free energy, Gtot (Htot - T*S):     -76.333855 hartrees


  T =   398.15 K
   
              U         Cv          S          H          G        ln(Q)
          ---------  ---------  ---------  ---------  ---------  ---------
  trans.      1.187      2.981     36.045      1.978    -12.373   15.63864
    rot.      1.187      2.981     11.415      1.187     -3.358    4.24437
    vib.      0.013      0.192      0.038      0.013     -0.002    0.00275
   elec.      0.000      0.000      0.000      0.000      0.000    0.00000
   total      2.386      6.153     47.498      3.178    -15.734   19.88577
   
  Total internal energy, Utot (SCFE + ZPE + U):     -76.306860 hartrees
              Total enthalpy, Htot (Utot + pV):     -76.305599 hartrees
    Total Gibbs free energy, Gtot (Htot - T*S):     -76.335737 hartrees


  T =   423.15 K
   
              U         Cv          S          H          G        ln(Q)
          ---------  ---------  ---------  ---------  ---------  ---------
  trans.      1.261      2.981     36.348      2.102    -13.278   15.79089
    rot.      1.261      2.981     11.597      1.261     -3.646    4.33572
    vib.      0.018      0.242      0.051      0.018     -0.003    0.00390
   elec.      0.000      0.000      0.000      0.000      0.000    0.00000
   total      2.541      6.203     47.995      3.382    -16.927   20.13051
   
  Total internal energy, Utot (SCFE + ZPE + U):     -76.306614 hartrees
              Total enthalpy, Htot (Utot + pV):     -76.305274 hartrees
    Total Gibbs free energy, Gtot (Htot - T*S):     -76.337639 hartrees


  T =   448.15 K
   
              U         Cv          S          H          G        ln(Q)
          ---------  ---------  ---------  ---------  ---------  ---------
  trans.      1.336      2.981     36.633      2.226    -14.191   15.93439
    rot.      1.336      2.981     11.768      1.336     -3.938    4.42182
    vib.      0.025      0.296      0.066      0.025     -0.005    0.00532
   elec.      0.000      0.000      0.000      0.000      0.000    0.00000
   total      2.697      6.257     48.467      3.587    -18.133   20.36154
   
  Total internal energy, Utot (SCFE + ZPE + U):     -76.306366 hartrees
              Total enthalpy, Htot (Utot + pV):     -76.304947 hartrees
    Total Gibbs free energy, Gtot (Htot - T*S):     -76.339561 hartrees


  T =   473.15 K
   
              U         Cv          S          H          G        ln(Q)
          ---------  ---------  ---------  ---------  ---------  ---------
  trans.      1.410      2.981     36.903      2.351    -15.110   16.07010
    rot.      1.410      2.981     11.930      1.410     -4.234    4.50325
    vib.      0.033      0.353      0.084      0.033     -0.007    0.00703
   elec.      0.000      0.000      0.000      0.000      0.000    0.00000
   total      2.854      6.314     48.916      3.794    -19.351   20.58038
   
  Total internal energy, Utot (SCFE + ZPE + U):     -76.306115 hartrees
              Total enthalpy, Htot (Utot + pV):     -76.304617 hartrees
    Total Gibbs free energy, Gtot (Htot - T*S):     -76.341500 hartrees


  T =   498.15 K
   
              U         Cv          S          H          G        ln(Q)
          ---------  ---------  ---------  ---------  ---------  ---------
  trans.      1.485      2.981     37.158      2.475    -16.036   16.19882
    rot.      1.485      2.981     12.083      1.485     -4.534    4.58048
    vib.      0.043      0.412      0.104      0.043     -0.009    0.00904
   elec.      0.000      0.000      0.000      0.000      0.000    0.00000
   total      3.012      6.374     49.345      4.002    -20.579   20.78835
   
  Total internal energy, Utot (SCFE + ZPE + U):     -76.305863 hartrees
              Total enthalpy, Htot (Utot + pV):     -76.304285 hartrees
    Total Gibbs free energy, Gtot (Htot - T*S):     -76.343458 hartrees


  T =   523.15 K
   
              U         Cv          S          H          G        ln(Q)
          ---------  ---------  ---------  ---------  ---------  ---------
  trans.      1.559      2.981     37.402      2.599    -16.968   16.32124
    rot.      1.559      2.981     12.229      1.559     -4.838    4.65393
    vib.      0.054      0.474      0.125      0.054     -0.012    0.01136
   elec.      0.000      0.000      0.000      0.000      0.000    0.00000
   total      3.173      6.435     49.756      4.212    -21.818   20.98653
   
  Total internal energy, Utot (SCFE + ZPE + U):     -76.305608 hartrees
              Total enthalpy, Htot (Utot + pV):     -76.303951 hartrees
    Total Gibbs free energy, Gtot (Htot - T*S):     -76.345432 hartrees


  T =   548.15 K
   
              U         Cv          S          H          G        ln(Q)
          ---------  ---------  ---------  ---------  ---------  ---------
  trans.      1.634      2.981     37.634      2.723    -17.906   16.43794
    rot.      1.634      2.981     12.368      1.634     -5.146    4.72395
    vib.      0.066      0.537      0.149      0.066     -0.015    0.01398
   elec.      0.000      0.000      0.000      0.000      0.000    0.00000
   total      3.334      6.499     50.151      4.423    -23.067   21.17588
   
  Total internal energy, Utot (SCFE + ZPE + U):     -76.305350 hartrees
              Total enthalpy, Htot (Utot + pV):     -76.303614 hartrees
    Total Gibbs free energy, Gtot (Htot - T*S):     -76.347422 hartrees


  T =   573.15 K
   
              U         Cv          S          H          G        ln(Q)
          ---------  ---------  ---------  ---------  ---------  ---------
  trans.      1.708      2.981     37.855      2.847    -18.849   16.54944
    rot.      1.708      2.981     12.501      1.708     -5.457    4.79085
    vib.      0.081      0.601      0.174      0.081     -0.019    0.01691
   elec.      0.000      0.000      0.000      0.000      0.000    0.00000
   total      3.497      6.563     50.531      4.636    -24.325   21.35720
   
  Total internal energy, Utot (SCFE + ZPE + U):     -76.305090 hartrees
              Total enthalpy, Htot (Utot + pV):     -76.303275 hartrees
    Total Gibbs free energy, Gtot (Htot - T*S):     -76.349428 hartrees


  T =   598.15 K
   
              U         Cv          S          H          G        ln(Q)
          ---------  ---------  ---------  ---------  ---------  ---------
  trans.      1.783      2.981     38.067      2.972    -19.798   16.65617
    rot.      1.783      2.981     12.628      1.783     -5.771    4.85489
    vib.      0.096      0.667      0.201      0.096     -0.024    0.02015
   elec.      0.000      0.000      0.000      0.000      0.000    0.00000
   total      3.662      6.629     50.897      4.851    -25.593   21.53122
   
  Total internal energy, Utot (SCFE + ZPE + U):     -76.304827 hartrees
              Total enthalpy, Htot (Utot + pV):     -76.302933 hartrees
    Total Gibbs free energy, Gtot (Htot - T*S):     -76.351448 hartrees


  T =   623.15 K
   
              U         Cv          S          H          G        ln(Q)
          ---------  ---------  ---------  ---------  ---------  ---------
  trans.      1.857      2.981     38.271      3.096    -20.753   16.75854
    rot.      1.857      2.981     12.751      1.857     -6.088    4.91631
    vib.      0.114      0.734      0.230      0.114     -0.029    0.02369
   elec.      0.000      0.000      0.000      0.000      0.000    0.00000
   total      3.829      6.695     51.251      5.067    -26.870   21.69854
   
  Total internal energy, Utot (SCFE + ZPE + U):     -76.304562 hartrees
              Total enthalpy, Htot (Utot + pV):     -76.302588 hartrees
    Total Gibbs free energy, Gtot (Htot - T*S):     -76.353483 hartrees


  T =   648.15 K
   
              U         Cv          S          H          G        ln(Q)
          ---------  ---------  ---------  ---------  ---------  ---------
  trans.      1.932      2.981     38.466      3.220    -21.712   16.85688
    rot.      1.932      2.981     12.868      1.932     -6.408    4.97531
    vib.      0.133      0.801      0.260      0.133     -0.035    0.02753
   elec.      0.000      0.000      0.000      0.000      0.000    0.00000
   total      3.997      6.763     51.594      5.285    -28.155   21.85972
   
  Total internal energy, Utot (SCFE + ZPE + U):     -76.304293 hartrees
              Total enthalpy, Htot (Utot + pV):     -76.302241 hartrees
    Total Gibbs free energy, Gtot (Htot - T*S):     -76.355532 hartrees


  T =   673.15 K
   
              U         Cv          S          H          G        ln(Q)
          ---------  ---------  ---------  ---------  ---------  ---------
  trans.      2.007      2.981     38.654      3.344    -22.676   16.95149
    rot.      2.007      2.981     12.981      2.007     -6.731    5.03208
    vib.      0.154      0.869      0.292      0.154     -0.042    0.03166
   elec.      0.000      0.000      0.000      0.000      0.000    0.00000
   total      4.167      6.831     51.926      5.505    -29.450   22.01523
   
  Total internal energy, Utot (SCFE + ZPE + U):     -76.304023 hartrees
              Total enthalpy, Htot (Utot + pV):     -76.301891 hartrees
    Total Gibbs free energy, Gtot (Htot - T*S):     -76.357594 hartrees


  T =   698.15 K
   
              U         Cv          S          H          G        ln(Q)
          ---------  ---------  ---------  ---------  ---------  ---------
  trans.      2.081      2.981     38.835      3.468    -23.644   17.04265
    rot.      2.081      2.981     13.089      2.081     -7.057    5.08678
    vib.      0.177      0.938      0.325      0.177     -0.050    0.03608
   elec.      0.000      0.000      0.000      0.000      0.000    0.00000
   total      4.339      6.899     52.249      5.726    -30.752   22.16551
   
  Total internal energy, Utot (SCFE + ZPE + U):     -76.303749 hartrees
              Total enthalpy, Htot (Utot + pV):     -76.301538 hartrees
    Total Gibbs free energy, Gtot (Htot - T*S):     -76.359669 hartrees


  T =   723.15 K
   
              U         Cv          S          H          G        ln(Q)
          ---------  ---------  ---------  ---------  ---------  ---------
  trans.      2.156      2.981     39.010      3.593    -24.618   17.13061
    rot.      2.156      2.981     13.194      2.156     -7.386    5.13956
    vib.      0.201      1.007      0.359      0.201     -0.059    0.04077
   elec.      0.000      0.000      0.000      0.000      0.000    0.00000
   total      4.512      6.969     52.563      5.949    -32.062   22.31094
   
  Total internal energy, Utot (SCFE + ZPE + U):     -76.303473 hartrees
              Total enthalpy, Htot (Utot + pV):     -76.301183 hartrees
    Total Gibbs free energy, Gtot (Htot - T*S):     -76.361757 hartrees


  T =   748.15 K
   
              U         Cv          S          H          G        ln(Q)
          ---------  ---------  ---------  ---------  ---------  ---------
  trans.      2.230      2.981     39.179      3.717    -25.595   17.21558
    rot.      2.230      2.981     13.295      2.230     -7.717    5.19054
    vib.      0.227      1.078      0.394      0.227     -0.068    0.04574
   elec.      0.000      0.000      0.000      0.000      0.000    0.00000
   total      4.687      7.039     52.869      6.174    -33.380   22.45185
   
  Total internal energy, Utot (SCFE + ZPE + U):     -76.303194 hartrees
              Total enthalpy, Htot (Utot + pV):     -76.300825 hartrees
    Total Gibbs free energy, Gtot (Htot - T*S):     -76.363857 hartrees


  T =   773.15 K
   
              U         Cv          S          H          G        ln(Q)
          ---------  ---------  ---------  ---------  ---------  ---------
  trans.      2.305      2.981     39.342      3.841    -26.576   17.29775
    rot.      2.305      2.981     13.393      2.305     -8.051    5.23984
    vib.      0.255      1.148      0.431      0.255     -0.078    0.05097
   elec.      0.000      0.000      0.000      0.000      0.000    0.00000
   total      4.864      7.110     53.166      6.400    -34.705   22.58856
   
  Total internal energy, Utot (SCFE + ZPE + U):     -76.302912 hartrees
              Total enthalpy, Htot (Utot + pV):     -76.300464 hartrees
    Total Gibbs free energy, Gtot (Htot - T*S):     -76.365970 hartrees


  T =   798.15 K
   
              U         Cv          S          H          G        ln(Q)
          ---------  ---------  ---------  ---------  ---------  ---------
  trans.      2.379      2.981     39.500      3.965    -27.562   17.37731
    rot.      2.379      2.981     13.488      2.379     -8.387    5.28758
    vib.      0.284      1.220      0.468      0.284     -0.090    0.05646
   elec.      0.000      0.000      0.000      0.000      0.000    0.00000
   total      5.043      7.181     53.457      6.629    -36.038   22.72134
   
  Total internal energy, Utot (SCFE + ZPE + U):     -76.302627 hartrees
              Total enthalpy, Htot (Utot + pV):     -76.300100 hartrees
    Total Gibbs free energy, Gtot (Htot - T*S):     -76.368094 hartrees


  T =   823.15 K
   
              U         Cv          S          H          G        ln(Q)
          ---------  ---------  ---------  ---------  ---------  ---------
  trans.      2.454      2.981     39.654      4.089    -28.551   17.45442
    rot.      2.454      2.981     13.580      2.454     -8.725    5.33384
    vib.      0.316      1.291      0.507      0.316     -0.102    0.06220
   elec.      0.000      0.000      0.000      0.000      0.000    0.00000
   total      5.223      7.253     53.741      6.859    -37.378   22.85045
   
  Total internal energy, Utot (SCFE + ZPE + U):     -76.302340 hartrees
              Total enthalpy, Htot (Utot + pV):     -76.299733 hartrees
    Total Gibbs free energy, Gtot (Htot - T*S):     -76.370229 hartrees


  T =   848.15 K
   
              U         Cv          S          H          G        ln(Q)
          ---------  ---------  ---------  ---------  ---------  ---------
  trans.      2.528      2.981     39.802      4.214    -29.545   17.52921
    rot.      2.528      2.981     13.669      2.528     -9.066    5.37872
    vib.      0.349      1.363      0.547      0.349     -0.115    0.06818
   elec.      0.000      0.000      0.000      0.000      0.000    0.00000
   total      5.405      7.325     54.018      7.091    -38.725   22.97611
   
  Total internal energy, Utot (SCFE + ZPE + U):     -76.302049 hartrees
              Total enthalpy, Htot (Utot + pV):     -76.299363 hartrees
    Total Gibbs free energy, Gtot (Htot - T*S):     -76.372376 hartrees


  T =   873.15 K
   
              U         Cv          S          H          G        ln(Q)
          ---------  ---------  ---------  ---------  ---------  ---------
  trans.      2.603      2.981     39.947      4.338    -30.541   17.60184
    rot.      2.603      2.981     13.756      2.603     -9.408    5.42229
    vib.      0.384      1.436      0.588      0.384     -0.129    0.07440
   elec.      0.000      0.000      0.000      0.000      0.000    0.00000
   total      5.589      7.397     54.290      7.324    -40.079   23.09853
   
  Total internal energy, Utot (SCFE + ZPE + U):     -76.301756 hartrees
              Total enthalpy, Htot (Utot + pV):     -76.298991 hartrees
    Total Gibbs free energy, Gtot (Htot - T*S):     -76.374533 hartrees


  T =   898.15 K
   
              U         Cv          S          H          G        ln(Q)
          ---------  ---------  ---------  ---------  ---------  ---------
  trans.      2.677      2.981     40.087      4.462    -31.542   17.67241
    rot.      2.677      2.981     13.840      2.677     -9.753    5.46464
    vib.      0.421      1.508      0.629      0.421     -0.144    0.08085
   elec.      0.000      0.000      0.000      0.000      0.000    0.00000
   total      5.775      7.470     54.556      7.560    -41.440   23.21790
   
  Total internal energy, Utot (SCFE + ZPE + U):     -76.301460 hartrees
              Total enthalpy, Htot (Utot + pV):     -76.298616 hartrees
    Total Gibbs free energy, Gtot (Htot - T*S):     -76.376701 hartrees
   
  Peak memory usage:    636 Mb
  
  end of program freq
   
 Time(freq)  user:        0.4  user+sys:        0.4  wallclock:        0.8

 Total cpu seconds     user:       8.695   user+sys:       8.695
  
 Total elapsed time:    33 seconds

Job H2O.01 completed on node-3-8.local at Mon Feb 11 16:07:13 2019
